<?xml version="1.0"?>
<VTKFile type="UnstructuredGrid" version="0.1" byte_order="LittleEndian" header_type="UInt32" compressor="vtkZLibDataCompressor">
  <UnstructuredGrid>
    <Piece NumberOfPoints="240" NumberOfCells="309">
      <PointData Scalars="sensitivity">
        <DataArray type="Float64" Name="sensitivity" format="ascii" RangeMin="1.1725408592e-315" RangeMax="0.5">
          1.1725408592e-315 0.5 0.5 0.5 0.5 0.0077546190021
          0.0077546190014 0.0077546190015 0.0077546190022 0.41862543849 0.22958648713 0.22958648713
          0.41862543849 0.5 0.5 0.41862543849 0.22958648713 0.22958648713
          0.41862543849 0.5 0.5 0.5 0.47677775381 0.43874794483
          0.38744318125 0.31838845823 0.24430567048 0.13313286265 0.035619969652 0.0076207629505
          0.0076207629508 0.5 0.47677775545 0.43874794625 0.38744317948 0.31838845667
          0.24430567047 0.13313286263 0.035619969652 0.048462039444 0.10711228585 0.10711228586
          0.048462039444 0.0076207629509 0.0076207629505 0.048462039444 0.10711228586 0.10711228585
          0.048462039444 0.035619969652 0.13313286263 0.24430567047 0.31838845667 0.38744317948
          0.43874794625 0.47677775545 0.5 0.035619969653 0.13313286265 0.24430567048
          0.31838845823 0.38744318125 0.43874794483 0.47677775381 0.5 0.41827244828
          0.41827244828 0.23092822276 0.23092822276 0.23092822276 0.23092822276 0.41827244828
          0.41827244828 0.5 0.5 0.47726318746 0.47726318828 0.43923725978
          0.43923726049 0.38735438689 0.387354386 0.3180881858 0.31808818502 0.24370250346
          0.24370250345 0.13228699746 0.13228699746 0.035102746708 0.035102746708 0.046612796918
          0.046612796918 0.10469662918 0.10469662918 0.10469662918 0.10469662918 0.046612796918
          0.046612796918 0.035102746708 0.035102746708 0.13228699746 0.13228699746 0.24370250345
          0.24370250346 0.31808818502 0.3180881858 0.387354386 0.38735438689 0.43923726049
          0.43923725978 0.47726318828 0.47726318746 0.5 0.5 0.41847830563
          0.40287942777 0.36581898514 0.31795781688 0.26449236377 0.20490388703 0.13277539457
          0.070742217898 0.23881763209 0.2464644366 0.22770081068 0.20044273839 0.17802686378
          0.15364899644 0.13749755462 0.1202495891 0.23881763209 0.2464644366 0.22770081183
          0.20044273804 0.17802686228 0.15364899644 0.13749755462 0.1202495891 0.41847830563
          0.40287942859 0.365818987 0.31795781565 0.26449236149 0.20490388702 0.13277539456
          0.070742217898 0.41847830563 0.40287942777 0.36581898514 0.31795781688 0.26449236377
          0.20490388703 0.13277539457 0.070742217898 0.23881763209 0.2464644366 0.22770081068
          0.20044273839 0.17802686378 0.15364899644 0.13749755462 0.1202495891 0.23881763209
          0.2464644366 0.22770081183 0.20044273804 0.17802686228 0.15364899644 0.13749755462
          0.1202495891 0.41847830563 0.40287942859 0.365818987 0.31795781565 0.26449236149
          0.20490388702 0.13277539456 0.070742217898 0.41890492038 0.4037895816 0.36585864533
          0.31743629803 0.26340916971 0.20342454448 0.13137383009 0.069066315703 0.41890492038
          0.40378958201 0.36585864626 0.31743629742 0.26340916857 0.20342454448 0.13137383008
          0.069066315703 0.24110953255 0.24787250931 0.22656450918 0.19869223818 0.17591000599
          0.15133822369 0.13529087488 0.11785615463 0.24110953255 0.24787250931 0.22656450975
          0.19869223801 0.17591000524 0.15133822369 0.13529087488 0.11785615463 0.24110953255
          0.24787250931 0.22656450975 0.19869223801 0.17591000524 0.15133822369 0.13529087488
          0.11785615463 0.24110953255 0.24787250931 0.22656450918 0.19869223818 0.17591000599
          0.15133822369 0.13529087488 0.11785615463 0.41890492038 0.40378958201 0.36585864626
          0.31743629742 0.26340916857 0.20342454448 0.13137383008 0.069066315703 0.41890492038
          0.4037895816 0.36585864533 0.31743629803 0.26340916971 0.20342454448 0.13137383009
          0.069066315703
        </DataArray>
      </PointData>
      <CellData>
      </CellData>
      <Points>
        <DataArray type="Float64" Name="Points" NumberOfComponents="3" format="ascii" RangeMin="1.4996130593e-031" RangeMax="0.17779999614">
          -8.7546154e-032 0.0762 -8.7546154e-032 -8.7546154e-032 -8.4615218e-032 -8.7546154e-032
          1.7163649e-036 1.6589031e-036 0.0508 -8.7546154e-032 0.0762 0.0508
          0.15239998 -4.9409093e-008 -1.2102728e-011 0.15239998 -4.9409093e-008 0.0508
          0.15240002 0.076199951 1.2102739e-011 0.15240002 0.076199951 0.0508
          -6.1904479e-032 0.06096 -6.1904479e-032 -6.1904479e-032 0.04572 -6.1904479e-032
          -6.1904479e-032 0.03048 -6.1904479e-032 -6.1904479e-032 0.01524 -6.1904479e-032
          1.2136522e-036 1.1730206e-036 0.0338667 1.2136522e-036 1.1730206e-036 0.0169333
          -6.1904479e-032 0.06096 0.0508 -6.1904479e-032 0.04572 0.0508
          -6.1904479e-032 0.03048 0.0508 -6.1904479e-032 0.01524 0.0508
          1.2136522e-036 0.0762 0.0338667 1.2136522e-036 0.0762 0.0169333
          0.016933296 -1.6793534e-009 -5.8404165e-010 0.033866694 -4.5390434e-009 -5.6628097e-010
          0.050799991 -8.6424017e-009 -4.9175768e-010 0.067733289 -1.3791684e-008 -4.0496762e-010
          0.084666687 -1.981778e-008 -3.232657e-010 0.10159999 -2.6542498e-008 -2.4322998e-010
          0.11853298 -3.3788641e-008 -1.6539547e-010 0.13546698 -4.1401482e-008 -8.349138e-011
          0.15239998 -4.9431649e-008 0.0338667 0.15239998 -4.9431649e-008 0.0169333
          0.016933296 -1.6793534e-009 0.050800001 0.033866694 -4.5390434e-009 0.050800001
          0.050799991 -8.6424017e-009 0.0508 0.067733289 -1.3791684e-008 0.0508
          0.084666687 -1.981778e-008 0.0508 0.10159999 -2.6542498e-008 0.0508
          0.11853298 -3.3788641e-008 0.0508 0.13546698 -4.1401482e-008 0.0508
          0.15239999 0.015239951 1.4663628e-011 0.1524 0.030479951 1.3200531e-011
          0.1524 0.045719951 -1.3200519e-011 0.15240001 0.060959951 -1.4663617e-011
          0.15240002 0.076199951 0.0338667 0.15240002 0.076199951 0.0169333
          0.15239999 0.015239951 0.0508 0.1524 0.030479951 0.0508
          0.1524 0.045719951 0.0508 0.15240001 0.060959951 0.0508
          0.13546702 0.076199959 8.349139e-011 0.11853302 0.076199966 1.6539548e-010
          0.10160001 0.076199973 2.4322998e-010 0.084666713 0.07619998 3.2326571e-010
          0.067733311 0.076199986 4.0496762e-010 0.050800009 0.076199991 4.9175768e-010
          0.033866706 0.076199995 5.6628097e-010 0.016933304 0.076199998 5.8404166e-010
          0.13546702 0.076199959 0.0508 0.11853302 0.076199966 0.0508
          0.10160001 0.076199973 0.0508 0.084666713 0.07619998 0.0508
          0.067733311 0.076199986 0.0508 0.050800009 0.076199991 0.0508
          0.033866706 0.076199995 0.050799999 0.016933304 0.076199998 0.050799999
          8.5818172e-037 0.06096 0.0169333 8.5818172e-037 0.06096 0.0338667
          8.5818172e-037 0.04572 0.0169333 8.5818172e-037 0.04572 0.0338667
          8.5818172e-037 0.03048 0.0169333 8.5818172e-037 0.03048 0.0338667
          8.5818172e-037 0.01524 0.0169333 8.5818172e-037 0.01524 0.0338667
          0.016933297 -1.8193135e-009 0.0169333 0.016933297 -1.8193135e-009 0.0338667
          0.033866694 -4.7014291e-009 0.0169333 0.033866694 -4.7014291e-009 0.0338667
          0.050799991 -8.783782e-009 0.0169333 0.050799991 -8.783782e-009 0.0338667
          0.067733289 -1.3909344e-008 0.0169333 0.067733289 -1.3909344e-008 0.0338667
          0.084666687 -1.9911744e-008 0.0169333 0.084666687 -1.9911744e-008 0.0338667
          0.10159999 -2.6613525e-008 0.0169333 0.10159999 -2.6613525e-008 0.0338667
          0.11853298 -3.3837884e-008 0.0169333 0.11853298 -3.3837884e-008 0.0338667
          0.13546698 -4.1431158e-008 0.0169333 0.13546698 -4.1431158e-008 0.0338667
          0.15239999 0.015239951 0.0169333 0.15239999 0.015239951 0.0338667
          0.1524 0.030479951 0.0169333 0.1524 0.030479951 0.0338667
          0.1524 0.045719951 0.0169333 0.1524 0.045719951 0.0338667
          0.15240001 0.060959951 0.0169333 0.15240001 0.060959951 0.0338667
          0.13546702 0.076199959 0.0169333 0.13546702 0.076199959 0.0338667
          0.11853302 0.076199966 0.0169333 0.11853302 0.076199966 0.0338667
          0.10160001 0.076199973 0.0169333 0.10160001 0.076199973 0.0338667
          0.084666713 0.07619998 0.0169333 0.084666713 0.07619998 0.0338667
          0.067733311 0.076199986 0.0169333 0.067733311 0.076199986 0.0338667
          0.050800009 0.076199991 0.0169333 0.050800009 0.076199991 0.0338667
          0.033866706 0.076199995 0.0169333 0.033866706 0.076199995 0.0338667
          0.016933303 0.076199998 0.0169333 0.016933303 0.076199998 0.0338667
          0.016933302 0.060959999 0.0508 0.033866704 0.060959996 0.0508
          0.050800005 0.060959992 0.0508 0.067733306 0.060959986 0.0508
          0.084666707 0.06095998 0.0508 0.10160001 0.060959974 0.0508
          0.11853301 0.060959966 0.0508 0.13546701 0.060959959 0.0508
          0.016933301 0.045719999 0.0508 0.033866701 0.045719996 0.0508
          0.050800002 0.045719992 0.0508 0.067733302 0.045719987 0.0508
          0.084666702 0.04571998 0.0508 0.1016 0.045719974 0.0508
          0.118533 0.045719966 0.0508 0.135467 0.045719959 0.0508
          0.016933299 0.030479999 0.0508 0.033866699 0.030479996 0.0508
          0.050799998 0.030479992 0.0508 0.067733298 0.030479987 0.0508
          0.084666698 0.03047998 0.0508 0.1016 0.030479974 0.0508
          0.118533 0.030479966 0.0508 0.135467 0.030479959 0.0508
          0.016933298 0.015239999 0.0508 0.033866696 0.015239996 0.0508
          0.050799995 0.015239992 0.0508 0.067733294 0.015239986 0.0508
          0.084666693 0.01523998 0.0508 0.10159999 0.015239974 0.0508
          0.11853299 0.015239966 0.0508 0.13546699 0.015239959 0.0508
          0.016933298 0.015239999 -3.5441434e-010 0.033866696 0.015239996 -3.5462478e-010
          0.050799995 0.015239992 -3.0300204e-010 0.067733294 0.015239986 -2.4876534e-010
          0.084666693 0.01523998 -1.9838022e-010 0.10159999 0.015239974 -1.4912097e-010
          0.11853299 0.015239966 -9.885452e-011 0.13546699 0.015239959 -4.329967e-011
          0.016933299 0.030479999 -1.1790742e-010 0.033866699 0.030479996 -1.1912592e-010
          0.050799998 0.030479992 -1.0205253e-010 0.067733298 0.030479987 -8.3284334e-011
          0.084666698 0.03047998 -6.6403304e-011 0.1016 0.030479974 -4.9770087e-011
          0.118533 0.030479966 -3.2336128e-011 0.135467 0.030479959 -1.2005214e-011
          0.016933301 0.045719999 1.1790742e-010 0.033866701 0.045719996 1.1912592e-010
          0.050800002 0.045719992 1.0205253e-010 0.067733302 0.045719987 8.3284337e-011
          0.084666702 0.04571998 6.6403309e-011 0.1016 0.045719974 4.9770094e-011
          0.118533 0.045719966 3.2336136e-011 0.135467 0.045719959 1.2005224e-011
          0.016933302 0.060959999 3.5441434e-010 0.033866704 0.060959996 3.5462478e-010
          0.050800005 0.060959992 3.0300204e-010 0.067733306 0.060959986 2.4876534e-010
          0.084666707 0.06095998 1.9838022e-010 0.10160001 0.060959974 1.4912098e-010
          0.11853301 0.060959966 9.8854528e-011 0.13546701 0.060959959 4.329968e-011
          0.016933298 0.015239999 0.0169333 0.033866696 0.015239996 0.0169333
          0.050799995 0.015239991 0.0169333 0.067733294 0.015239986 0.0169333
          0.084666692 0.01523998 0.0169333 0.10159999 0.015239974 0.0169333
          0.11853299 0.015239966 0.0169333 0.13546699 0.015239959 0.0169333
          0.016933298 0.015239999 0.0338667 0.033866696 0.015239996 0.0338667
          0.050799995 0.015239991 0.0338667 0.067733294 0.015239986 0.0338667
          0.084666692 0.01523998 0.0338667 0.10159999 0.015239974 0.0338667
          0.11853299 0.015239966 0.0338667 0.13546699 0.015239959 0.0338667
          0.016933299 0.030479999 0.0169333 0.033866699 0.030479996 0.0169333
          0.050799998 0.030479992 0.0169333 0.067733298 0.030479986 0.0169333
          0.084666698 0.03047998 0.0169333 0.1016 0.030479974 0.0169333
          0.118533 0.030479966 0.0169333 0.135467 0.030479959 0.0169333
          0.016933299 0.030479999 0.0338667 0.033866699 0.030479996 0.0338667
          0.050799998 0.030479992 0.0338667 0.067733298 0.030479986 0.0338667
          0.084666698 0.03047998 0.0338667 0.1016 0.030479974 0.0338667
          0.118533 0.030479966 0.0338667 0.135467 0.030479959 0.0338667
          0.016933301 0.045719999 0.0169333 0.033866701 0.045719996 0.0169333
          0.050800002 0.045719992 0.0169333 0.067733302 0.045719986 0.0169333
          0.084666702 0.04571998 0.0169333 0.1016 0.045719974 0.0169333
          0.118533 0.045719966 0.0169333 0.135467 0.045719959 0.0169333
          0.016933301 0.045719999 0.0338667 0.033866701 0.045719996 0.0338667
          0.050800002 0.045719992 0.0338667 0.067733302 0.045719986 0.0338667
          0.084666702 0.04571998 0.0338667 0.1016 0.045719974 0.0338667
          0.118533 0.045719966 0.0338667 0.135467 0.045719959 0.0338667
          0.016933302 0.060959999 0.0169333 0.033866704 0.060959996 0.0169333
          0.050800005 0.060959991 0.0169333 0.067733306 0.060959986 0.0169333
          0.084666708 0.06095998 0.0169333 0.10160001 0.060959974 0.0169333
          0.11853301 0.060959966 0.0169333 0.13546701 0.060959959 0.0169333
          0.016933302 0.060959999 0.0338667 0.033866704 0.060959996 0.0338667
          0.050800005 0.060959991 0.0338667 0.067733306 0.060959986 0.0338667
          0.084666708 0.06095998 0.0338667 0.10160001 0.060959974 0.0338667
          0.11853301 0.060959966 0.0338667 0.13546701 0.060959959 0.0338667
        </DataArray>
      </Points>
      <Cells>
        <DataArray type="Int64" Name="connectivity" format="ascii" RangeMin="0" RangeMax="239">
          1 11 70 13 20 144
          176 72 20 144 176 72
          21 145 177 74 21 145
          177 74 22 146 178 76
          22 146 178 76 23 147
          179 78 23 147 179 78
          24 148 180 80 24 148
          180 80 25 149 181 82
          25 149 181 82 26 150
          182 84 26 150 182 84
          27 151 183 86 27 151
          183 86 4 38 88 29
          13 70 71 12 72 176
          184 73 72 176 184 73
          74 177 185 75 74 177
          185 75 76 178 186 77
          76 178 186 77 78 179
          187 79 78 179 187 79
          80 180 188 81 80 180
          188 81 82 181 189 83
          82 181 189 83 84 182
          190 85 84 182 190 85
          86 183 191 87 86 183
          191 87 29 88 89 28
          12 71 17 2 73 184
          136 30 73 184 136 30
          75 185 137 31 75 185
          137 31 77 186 138 32
          77 186 138 32 79 187
          139 33 79 187 139 33
          81 188 140 34 81 188
          140 34 83 189 141 35
          83 189 141 35 85 190
          142 36 85 190 142 36
          87 191 143 37 87 191
          143 37 28 89 44 5
          11 10 68 70 144 152
          192 176 144 152 192 176
          145 153 193 177 145 153
          193 177 146 154 194 178
          146 154 194 178 147 155
          195 179 147 155 195 179
          148 156 196 180 148 156
          196 180 149 157 197 181
          149 157 197 181 150 158
          198 182 150 158 198 182
          151 159 199 183 151 159
          199 183 38 39 90 88
          70 68 69 71 176 192
          200 184 176 192 200 184
          177 193 201 185 177 193
          201 185 178 194 202 186
          178 194 202 186 179 195
          203 187 179 195 203 187
          180 196 204 188 180 196
          204 188 181 197 205 189
          181 197 205 189 182 198
          206 190 182 198 206 190
          183 199 207 191 183 199
          207 191 88 90 91 89
          71 69 16 17 184 200
          128 136 184 200 128 136
          185 201 129 137 185 201
          129 137 186 202 130 138
          186 202 130 138 187 203
          131 139 187 203 131 139
          188 204 132 140 188 204
          132 140 189 205 133 141
          189 205 133 141 190 206
          134 142 190 206 134 142
          191 207 135 143 191 207
          135 143 89 91 45 44
          10 9 66 68 152 160
          208 192 152 160 208 192
          153 161 209 193 153 161
          209 193 154 162 210 194
          154 162 210 194 155 163
          211 195 155 163 211 195
          156 164 212 196 156 164
          212 196 157 165 213 197
          157 165 213 197 158 166
          214 198 158 166 214 198
          159 167 215 199 159 167
          215 199 39 40 92 90
          68 66 67 69 192 208
          216 200 192 208 216 200
          193 209 217 201 193 209
          217 201 194 210 218 202
          194 210 218 202 195 211
          219 203 195 211 219 203
          196 212 220 204 196 212
          220 204 197 213 221 205
          197 213 221 205 198 214
          222 206 198 214 222 206
          199 215 223 207 199 215
          223 207 90 92 93 91
          69 67 15 16 200 216
          120 128 200 216 120 128
          201 217 121 129 201 217
          121 129 202 218 122 130
          202 218 122 130 203 219
          123 131 203 219 123 131
          204 220 124 132 204 220
          124 132 205 221 125 133
          205 221 125 133 206 222
          126 134 206 222 126 134
          207 223 127 135 207 223
          127 135 91 93 46 45
          9 8 64 66 160 168
          224 208 160 168 224 208
          161 169 225 209 161 169
          225 209 162 170 226 210
          162 170 226 210 163 171
          227 211 163 171 227 211
          164 172 228 212 164 172
          228 212 165 173 229 213
          165 173 229 213 166 174
          230 214 166 174 230 214
          167 175 231 215 167 175
          231 215 40 41 94 92
          66 64 65 67 208 224
          232 216 208 224 232 216
          209 225 233 217 209 225
          233 217 210 226 234 218
          210 226 234 218 211 227
          235 219 211 227 235 219
          212 228 236 220 212 228
          236 220 213 229 237 221
          213 229 237 221 214 230
          238 222 214 230 238 222
          215 231 239 223 215 231
          239 223 92 94 95 93
          67 65 14 15 216 232
          112 120 216 232 112 120
          217 233 113 121 217 233
          113 121 218 234 114 122
          218 234 114 122 219 235
          115 123 219 235 115 123
          220 236 116 124 220 236
          116 124 221 237 117 125
          221 237 117 125 222 238
          118 126 222 238 118 126
          223 239 119 127 223 239
          119 127 93 95 47 46
          8 0 19 64 168 55
          110 224 168 55 110 224
          169 54 108 225 169 54
          108 225 170 53 106 226
          170 53 106 226 171 52
          104 227 171 52 104 227
          172 51 102 228 172 51
          102 228 173 50 100 229
          173 50 100 229 174 49
          98 230 174 49 98 230
          175 48 96 231 175 48
          96 231 41 6 43 94
          64 19 18 65 224 110
          111 232 224 110 111 232
          225 108 109 233 225 108
          109 233 226 106 107 234
          226 106 107 234 227 104
          105 235 227 104 105 235
          228 102 103 236 228 102
          103 236 229 100 101 237
          229 100 101 237 230 98
          99 238 230 98 99 238
          231 96 97 239 231 96
          97 239 94 43 42 95
          65 18 3 14 232 111
          63 112 232 111 63 112
          233 109 62 113 233 109
          62 113 234 107 61 114
          234 107 61 114 235 105
          60 115 235 105 60 115
          236 103 59 116 236 103
          59 116 237 101 58 117
          237 101 58 117 238 99
          57 118 238 99 57 118
          239 97 56 119 239 97
          56 119 95 42 7 47
          64 19 0 8 65 18
          19 64 14 3 18 65
          66 64 8 9 67 65
          64 66 67 15 14 65
          10 68 66 9 68 69
          67 66 69 16 15 67
          11 70 68 10 70 71
          69 68 71 17 16 69
          1 13 70 11 12 71
          70 13 2 17 71 12
          72 13 1 20 12 13
          72 73 2 12 73 30
          72 20 21 74 73 72
          74 75 30 73 75 31
          74 21 22 76 75 74
          76 77 31 75 77 32
          76 22 23 78 77 76
          78 79 32 77 79 33
          78 23 24 80 79 78
          80 81 33 79 81 34
          80 24 25 82 81 80
          82 83 34 81 83 35
          82 25 26 84 83 82
          84 85 35 83 85 36
          84 26 27 86 85 84
          86 87 36 85 87 37
          86 27 4 29 87 86
          29 28 37 87 28 5
          29 4 38 88 28 29
          88 89 5 28 89 44
          88 38 39 90 89 88
          90 91 44 89 91 45
          90 39 40 92 91 90
          92 93 45 91 93 46
          92 40 41 94 93 92
          94 95 46 93 95 47
          94 41 6 43 95 94
          43 42 47 95 42 7
          6 48 96 43 43 96
          97 42 42 97 56 7
          48 49 98 96 96 98
          99 97 97 99 57 56
          49 50 100 98 98 100
          101 99 99 101 58 57
          50 51 102 100 100 102
          103 101 103 59 58 101
          52 104 102 51 104 105
          103 102 105 60 59 103
          53 106 104 52 106 107
          105 104 107 61 60 105
          54 108 106 53 108 109
          107 106 109 62 61 107
          55 110 108 54 110 111
          109 108 111 63 62 109
          0 19 110 55 19 18
          111 110 18 3 63 111
          3 14 112 63 63 112
          113 62 62 113 114 61
          61 114 115 60 60 115
          116 59 59 116 117 58
          58 117 118 57 57 118
          119 56 56 119 47 7
          14 15 120 112 112 120
          121 113 113 121 122 114
          114 122 123 115 115 123
          124 116 116 124 125 117
          117 125 126 118 118 126
          127 119 119 127 46 47
          15 16 128 120 120 128
          129 121 121 129 130 122
          122 130 131 123 123 131
          132 124 124 132 133 125
          125 133 134 126 126 134
          135 127 127 135 45 46
          16 17 136 128 128 136
          137 129 129 137 138 130
          130 138 139 131 131 139
          140 132 132 140 141 133
          133 141 142 134 134 142
          143 135 135 143 44 45
          17 2 30 136 136 30
          31 137 137 31 32 138
          138 32 33 139 139 33
          34 140 140 34 35 141
          141 35 36 142 142 36
          37 143 143 37 5 44
          1 11 144 20 20 144
          145 21 21 145 146 22
          22 146 147 23 23 147
          148 24 24 148 149 25
          25 149 150 26 26 150
          151 27 27 151 38 4
          11 10 152 144 144 152
          153 145 145 153 154 146
          146 154 155 147 147 155
          156 148 148 156 157 149
          149 157 158 150 150 158
          159 151 151 159 39 38
          10 9 160 152 152 160
          161 153 153 161 162 154
          154 162 163 155 155 163
          164 156 156 164 165 157
          157 165 166 158 158 166
          167 159 159 167 40 39
          9 8 168 160 160 168
          169 161 161 169 170 162
          162 170 171 163 163 171
          172 164 164 172 173 165
          165 173 174 166 166 174
          175 167 167 175 41 40
          8 0 55 168 168 55
          54 169 169 54 53 170
          170 53 52 171 171 52
          51 172 172 51 50 173
          173 50 49 174 174 49
          48 175 175 48 6 41
        </DataArray>
        <DataArray type="Int64" Name="offsets" format="ascii" RangeMin="8" RangeMax="1776">
          8 16 24 32 40 48
          56 64 72 80 88 96
          104 112 120 128 136 144
          152 160 168 176 184 192
          200 208 216 224 232 240
          248 256 264 272 280 288
          296 304 312 320 328 336
          344 352 360 368 376 384
          392 400 408 416 424 432
          440 448 456 464 472 480
          488 496 504 512 520 528
          536 544 552 560 568 576
          584 592 600 608 616 624
          632 640 648 656 664 672
          680 688 696 704 712 720
          728 736 744 752 760 768
          776 784 792 800 808 816
          824 832 840 848 856 864
          872 880 888 896 904 912
          920 928 936 944 952 960
          968 976 984 992 1000 1008
          1016 1024 1032 1040 1048 1056
          1064 1072 1080 1084 1088 1092
          1096 1100 1104 1108 1112 1116
          1120 1124 1128 1132 1136 1140
          1144 1148 1152 1156 1160 1164
          1168 1172 1176 1180 1184 1188
          1192 1196 1200 1204 1208 1212
          1216 1220 1224 1228 1232 1236
          1240 1244 1248 1252 1256 1260
          1264 1268 1272 1276 1280 1284
          1288 1292 1296 1300 1304 1308
          1312 1316 1320 1324 1328 1332
          1336 1340 1344 1348 1352 1356
          1360 1364 1368 1372 1376 1380
          1384 1388 1392 1396 1400 1404
          1408 1412 1416 1420 1424 1428
          1432 1436 1440 1444 1448 1452
          1456 1460 1464 1468 1472 1476
          1480 1484 1488 1492 1496 1500
          1504 1508 1512 1516 1520 1524
          1528 1532 1536 1540 1544 1548
          1552 1556 1560 1564 1568 1572
          1576 1580 1584 1588 1592 1596
          1600 1604 1608 1612 1616 1620
          1624 1628 1632 1636 1640 1644
          1648 1652 1656 1660 1664 1668
          1672 1676 1680 1684 1688 1692
          1696 1700 1704 1708 1712 1716
          1720 1724 1728 1732 1736 1740
          1744 1748 1752 1756 1760 1764
          1768 1772 1776
        </DataArray>
        <DataArray type="UInt8" Name="types" format="ascii" RangeMin="9" RangeMax="12">
          12 12 12 12 12 12
          12 12 12 12 12 12
          12 12 12 12 12 12
          12 12 12 12 12 12
          12 12 12 12 12 12
          12 12 12 12 12 12
          12 12 12 12 12 12
          12 12 12 12 12 12
          12 12 12 12 12 12
          12 12 12 12 12 12
          12 12 12 12 12 12
          12 12 12 12 12 12
          12 12 12 12 12 12
          12 12 12 12 12 12
          12 12 12 12 12 12
          12 12 12 12 12 12
          12 12 12 12 12 12
          12 12 12 12 12 12
          12 12 12 12 12 12
          12 12 12 12 12 12
          12 12 12 12 12 12
          12 12 12 12 12 12
          12 12 12 9 9 9
          9 9 9 9 9 9
          9 9 9 9 9 9
          9 9 9 9 9 9
          9 9 9 9 9 9
          9 9 9 9 9 9
          9 9 9 9 9 9
          9 9 9 9 9 9
          9 9 9 9 9 9
          9 9 9 9 9 9
          9 9 9 9 9 9
          9 9 9 9 9 9
          9 9 9 9 9 9
          9 9 9 9 9 9
          9 9 9 9 9 9
          9 9 9 9 9 9
          9 9 9 9 9 9
          9 9 9 9 9 9
          9 9 9 9 9 9
          9 9 9 9 9 9
          9 9 9 9 9 9
          9 9 9 9 9 9
          9 9 9 9 9 9
          9 9 9 9 9 9
          9 9 9 9 9 9
          9 9 9 9 9 9
          9 9 9 9 9 9
          9 9 9 9 9 9
          9 9 9 9 9 9
          9 9 9
        </DataArray>
      </Cells>
    </Piece>
  </UnstructuredGrid>
</VTKFile>
