<?xml version="1.0"?>
<VTKFile type="UnstructuredGrid" version="0.1" byte_order="LittleEndian">
  <UnstructuredGrid>
    <Piece NumberOfPoints="240" NumberOfCells="309">
      <PointData>
        <DataArray type="Float64" Name="displacement" NumberOfComponents="3" format="ascii">
 -8.7546154E-032  1.6589031E-036 -8.7546154E-032 -8.7546154E-032 -8.4615218E-032 -8.7546154E-032  1.7163649E-036  1.6589031E-036  1.7163649E-036 -8.7546154E-032  1.6589031E-036 -8.7546154E-032 -1.6169636E-008 -4.9409093E-008 -1.2102728E-011 -1.6169636E-008 -4.9409093E-008  1.2102739E-011  1.6169636E-008 -4.9409093E-008  1.2102739E-011  1.6169636E-008 -4.9409093E-008 -1.2102728E-011 -6.1904479E-032 -5.9831994E-032 -6.1904479E-032 -6.1904479E-032 -5.9831994E-032 -6.1904479E-032 -6.1904479E-032 -5.9831994E-032 -6.1904479E-032 -6.1904479E-032 -5.9831994E-032 -6.1904479E-032  1.2136522E-036  1.1730206E-036  1.2136533E-036  1.2136522E-036  1.1730206E-036  1.2136533E-036 -6.1904479E-032  1.1730216E-036 -6.1904479E-032 -6.1904479E-032 -5.9831994E-032 -6.1904479E-032 -6.1904479E-032 -5.9831994E-032 -6.1904479E-032 -6.1904479E-032 -5.9831994E-032 -6.1904479E-032  1.2136522E-036  1.1730206E-036  1.2136533E-036  1.2136522E-036 -5.9831942E-032  1.2136533E-036 -3.5703750E-009 -1.6793534E-009 -5.8404165E-010 -6.4508435E-009 -4.5390434E-009 -5.6628097E-010 -8.9842764E-009 -8.6424017E-009 -4.9175768E-010 -1.1148912E-008 -1.3791684E-008 -4.0496762E-010 -1.2923048E-008 -1.9817780E-008 -3.2326570E-010 -1.4302803E-008 -2.6542498E-008 -2.4322998E-010 -1.5294170E-008 -3.3788641E-008 -1.6539547E-010 -1.5925602E-008 -4.1401482E-008 -8.3491380E-011 -1.6210857E-008 -4.9431649E-008  4.7270975E-012 -1.6210857E-008 -4.9431649E-008 -4.7270861E-012 -3.5703750E-009 -1.6793534E-009  5.8404166E-010 -6.4508435E-009 -4.5390434E-009  5.6628097E-010 -8.9842765E-009 -8.6424017E-009  4.9175768E-010 -1.1148912E-008 -1.3791684E-008  4.0496762E-010 -1.2923048E-008 -1.9817780E-008  3.2326571E-010 -1.4302803E-008 -2.6542498E-008  2.4322998E-010 -1.5294170E-008 -3.3788641E-008  1.6539548E-010 -1.5925602E-008 -4.1401482E-008  8.3491390E-011 -9.3271959E-009 -4.9260503E-008  1.4663628E-011 -3.0442154E-009 -4.9063557E-008  1.3200531E-011  3.0442154E-009 -4.9063557E-008 -1.3200519E-011  9.3271959E-009 -4.9260503E-008 -1.4663617E-011  1.6210857E-008 -4.9431649E-008 -4.7270861E-012  1.6210857E-008 -4.9431649E-008  4.7270975E-012 -9.3271959E-009 -4.9260503E-008 -1.4663617E-011 -3.0442154E-009 -4.9063557E-008 -1.3200519E-011  3.0442154E-009 -4.9063557E-008  1.3200531E-011  9.3271959E-009 -4.9260503E-008  1.4663628E-011  1.5925602E-008 -4.1401482E-008  8.3491390E-011  1.5294170E-008 -3.3788641E-008  1.6539548E-010  1.4302803E-008 -2.6542498E-008  2.4322998E-010  1.2923048E-008 -1.9817780E-008  3.2326571E-010  1.1148912E-008 -1.3791684E-008  4.0496762E-010  8.9842765E-009 -8.6424017E-009  4.9175768E-010  6.4508435E-009 -4.5390434E-009  5.6628097E-010  3.5703750E-009 -1.6793534E-009  5.8404166E-010  1.5925602E-008 -4.1401482E-008 -8.3491380E-011  1.5294170E-008 -3.3788641E-008 -1.6539547E-010  1.4302803E-008 -2.6542498E-008 -2.4322998E-010  1.2923048E-008 -1.9817780E-008 -3.2326570E-010  1.1148912E-008 -1.3791684E-008 -4.0496762E-010  8.9842764E-009 -8.6424017E-009 -4.9175768E-010  6.4508435E-009 -4.5390434E-009 -5.6628097E-010  3.5703750E-009 -1.6793534E-009 -5.8404165E-010  8.5818172E-037  8.2945083E-037  8.5818248E-037  8.5818172E-037  8.2945083E-037  8.5818248E-037  8.5818172E-037  8.2945083E-037  8.5818248E-037  8.5818172E-037  8.2945083E-037  8.5818248E-037  8.5818172E-037  8.2945083E-037  8.5818248E-037  8.5818172E-037  8.2945083E-037  8.5818248E-037  8.5818172E-037  8.2945083E-037  8.5818248E-037  8.5818172E-037  8.2945083E-037  8.5818248E-037 -3.4742395E-009 -1.8193135E-009 -1.5646863E-010 -3.4742395E-009 -1.8193135E-009  1.5646863E-010 -6.4529014E-009 -4.7014291E-009 -1.9781925E-010 -6.4529014E-009 -4.7014291E-009  1.9781925E-010 -9.0197272E-009 -8.7837820E-009 -1.6513420E-010 -9.0197272E-009 -8.7837820E-009  1.6513420E-010 -1.1188003E-008 -1.3909344E-008 -1.3605844E-010 -1.1188003E-008 -1.3909344E-008  1.3605845E-010 -1.2961114E-008 -1.9911744E-008 -1.0823607E-010 -1.2961114E-008 -1.9911744E-008  1.0823608E-010 -1.4340449E-008 -2.6613525E-008 -8.1639505E-011 -1.4340449E-008 -2.6613525E-008  8.1639512E-011 -1.5332930E-008 -3.3837884E-008 -5.4901225E-011 -1.5332930E-008 -3.3837884E-008  5.4901234E-011 -1.5965942E-008 -4.1431158E-008 -2.7982276E-011 -1.5965942E-008 -4.1431158E-008  2.7982286E-011 -9.3626734E-009 -4.9279451E-008  3.1915385E-012 -9.3626734E-009 -4.9279451E-008 -3.1915271E-012 -3.0585597E-009 -4.9075312E-008  2.7938115E-012 -3.0585597E-009 -4.9075312E-008 -2.7938001E-012  3.0585597E-009 -4.9075312E-008 -2.7938001E-012  3.0585597E-009 -4.9075312E-008  2.7938115E-012  9.3626734E-009 -4.9279451E-008 -3.1915271E-012  9.3626734E-009 -4.9279451E-008  3.1915385E-012  1.5965942E-008 -4.1431158E-008  2.7982286E-011  1.5965942E-008 -4.1431158E-008 -2.7982276E-011  1.5332930E-008 -3.3837884E-008  5.4901234E-011  1.5332930E-008 -3.3837884E-008 -5.4901225E-011  1.4340449E-008 -2.6613525E-008  8.1639512E-011  1.4340449E-008 -2.6613525E-008 -8.1639505E-011  1.2961114E-008 -1.9911744E-008  1.0823608E-010  1.2961114E-008 -1.9911744E-008 -1.0823607E-010  1.1188003E-008 -1.3909344E-008  1.3605845E-010  1.1188003E-008 -1.3909344E-008 -1.3605844E-010  9.0197272E-009 -8.7837820E-009  1.6513420E-010  9.0197272E-009 -8.7837820E-009 -1.6513420E-010  6.4529014E-009 -4.7014291E-009  1.9781925E-010  6.4529014E-009 -4.7014291E-009 -1.9781925E-010  3.4742395E-009 -1.8193135E-009  1.5646863E-010  3.4742395E-009 -1.8193135E-009 -1.5646863E-010  1.8632913E-009 -1.3456611E-009 -3.5441434E-010  3.5889354E-009 -4.2681168E-009 -3.5462478E-010  5.1094417E-009 -8.4006422E-009 -3.0300204E-010  6.4095588E-009 -1.3591054E-008 -2.4876534E-010  7.4745903E-009 -1.9657234E-008 -1.9838022E-010  8.3024848E-009 -2.6423322E-008 -1.4912097E-010  8.8887243E-009 -3.3713495E-008 -9.8854520E-011  9.2157751E-009 -4.1369631E-008 -4.3299670E-011  5.9583915E-010 -1.2564320E-009 -1.1790742E-010  1.1468794E-009 -4.1234606E-009 -1.1912592E-010  1.6569066E-009 -8.2782479E-009 -1.0205253E-010  2.0906542E-009 -1.3489468E-008 -8.3284334E-011  2.4459007E-009 -1.9576437E-008 -6.6403304E-011  2.7212791E-009 -2.6364870E-008 -4.9770087E-011  2.9117636E-009 -3.3685294E-008 -3.2336128E-011  3.0094278E-009 -4.1359980E-008 -1.2005214E-011 -5.9583915E-010 -1.2564320E-009  1.1790742E-010 -1.1468794E-009 -4.1234606E-009  1.1912592E-010 -1.6569066E-009 -8.2782479E-009  1.0205253E-010 -2.0906542E-009 -1.3489468E-008  8.3284337E-011 -2.4459007E-009 -1.9576437E-008  6.6403309E-011 -2.7212791E-009 -2.6364870E-008  4.9770094E-011 -2.9117636E-009 -3.3685294E-008  3.2336136E-011 -3.0094278E-009 -4.1359980E-008  1.2005224E-011 -1.8632913E-009 -1.3456611E-009  3.5441434E-010 -3.5889354E-009 -4.2681168E-009  3.5462478E-010 -5.1094417E-009 -8.4006422E-009  3.0300204E-010 -6.4095589E-009 -1.3591054E-008  2.4876534E-010 -7.4745903E-009 -1.9657234E-008  1.9838022E-010 -8.3024848E-009 -2.6423322E-008  1.4912098E-010 -8.8887243E-009 -3.3713495E-008  9.8854528E-011 -9.2157751E-009 -4.1369631E-008  4.3299680E-011 -1.8632913E-009 -1.3456611E-009 -3.5441434E-010 -3.5889354E-009 -4.2681168E-009 -3.5462478E-010 -5.1094417E-009 -8.4006422E-009 -3.0300204E-010 -6.4095588E-009 -1.3591054E-008 -2.4876534E-010 -7.4745903E-009 -1.9657234E-008 -1.9838022E-010 -8.3024848E-009 -2.6423322E-008 -1.4912097E-010 -8.8887243E-009 -3.3713495E-008 -9.8854520E-011 -9.2157751E-009 -4.1369631E-008 -4.3299670E-011 -5.9583915E-010 -1.2564320E-009 -1.1790742E-010 -1.1468794E-009 -4.1234606E-009 -1.1912592E-010 -1.6569066E-009 -8.2782479E-009 -1.0205253E-010 -2.0906542E-009 -1.3489468E-008 -8.3284334E-011 -2.4459007E-009 -1.9576437E-008 -6.6403304E-011 -2.7212791E-009 -2.6364870E-008 -4.9770087E-011 -2.9117636E-009 -3.3685294E-008 -3.2336128E-011 -3.0094278E-009 -4.1359980E-008 -1.2005214E-011  5.9583915E-010 -1.2564320E-009  1.1790742E-010  1.1468794E-009 -4.1234606E-009  1.1912592E-010  1.6569066E-009 -8.2782479E-009  1.0205253E-010  2.0906542E-009 -1.3489468E-008  8.3284337E-011  2.4459007E-009 -1.9576437E-008  6.6403309E-011  2.7212791E-009 -2.6364870E-008  4.9770094E-011  2.9117636E-009 -3.3685294E-008  3.2336136E-011  3.0094278E-009 -4.1359980E-008  1.2005224E-011  1.8632913E-009 -1.3456611E-009  3.5441434E-010  3.5889354E-009 -4.2681168E-009  3.5462478E-010  5.1094417E-009 -8.4006422E-009  3.0300204E-010  6.4095589E-009 -1.3591054E-008  2.4876534E-010  7.4745903E-009 -1.9657234E-008  1.9838022E-010  8.3024848E-009 -2.6423322E-008  1.4912098E-010  8.8887243E-009 -3.3713495E-008  9.8854528E-011  9.2157751E-009 -4.1369631E-008  4.3299680E-011 -1.7788806E-009 -1.4819658E-009 -9.6543440E-011 -3.5887033E-009 -4.4266105E-009 -1.2275741E-010 -5.1400854E-009 -8.5441220E-009 -1.0125313E-010 -6.4428646E-009 -1.3710767E-008 -8.2723353E-011 -7.5069776E-009 -1.9752825E-008 -6.5773699E-011 -8.3346394E-009 -2.6495308E-008 -4.9476597E-011 -8.9219402E-009 -3.3762388E-008 -3.2721734E-011 -9.2501745E-009 -4.1396327E-008 -1.4638726E-011 -1.7788806E-009 -1.4819658E-009  9.6543440E-011 -3.5887033E-009 -4.4266105E-009  1.2275741E-010 -5.1400854E-009 -8.5441220E-009  1.0125313E-010 -6.4428646E-009 -1.3710767E-008  8.2723356E-011 -7.5069776E-009 -1.9752825E-008  6.5773704E-011 -8.3346394E-009 -2.6495308E-008  4.9476604E-011 -8.9219402E-009 -3.3762388E-008  3.2721742E-011 -9.2501745E-009 -4.1396327E-008  1.4638736E-011 -5.6863280E-010 -1.3949691E-009 -3.2463870E-011 -1.1459267E-009 -4.2839787E-009 -4.1926795E-011 -1.6672230E-009 -8.4247864E-009 -3.4460420E-011 -2.1021105E-009 -1.3611839E-008 -2.7992779E-011 -2.4569719E-009 -1.9673988E-008 -2.2229927E-011 -2.7323747E-009 -2.6437979E-008 -1.6684826E-011 -2.9234482E-009 -3.3733524E-008 -1.0834355E-011 -3.0223472E-009 -4.1381460E-008 -4.1016875E-012 -5.6863280E-010 -1.3949691E-009  3.2463870E-011 -1.1459267E-009 -4.2839787E-009  4.1926796E-011 -1.6672230E-009 -8.4247864E-009  3.4460422E-011 -2.1021105E-009 -1.3611839E-008  2.7992783E-011 -2.4569719E-009 -1.9673988E-008  2.2229932E-011 -2.7323747E-009 -2.6437979E-008  1.6684833E-011 -2.9234482E-009 -3.3733524E-008  1.0834363E-011 -3.0223472E-009 -4.1381460E-008  4.1016974E-012  5.6863280E-010 -1.3949691E-009  3.2463870E-011  1.1459267E-009 -4.2839787E-009  4.1926796E-011  1.6672230E-009 -8.4247864E-009  3.4460422E-011  2.1021105E-009 -1.3611839E-008  2.7992783E-011  2.4569719E-009 -1.9673988E-008  2.2229932E-011  2.7323747E-009 -2.6437979E-008  1.6684833E-011  2.9234482E-009 -3.3733524E-008  1.0834363E-011  3.0223472E-009 -4.1381460E-008  4.1016974E-012  5.6863280E-010 -1.3949691E-009 -3.2463870E-011  1.1459267E-009 -4.2839787E-009 -4.1926795E-011  1.6672230E-009 -8.4247864E-009 -3.4460420E-011  2.1021105E-009 -1.3611839E-008 -2.7992779E-011  2.4569719E-009 -1.9673988E-008 -2.2229927E-011  2.7323747E-009 -2.6437979E-008 -1.6684826E-011  2.9234482E-009 -3.3733524E-008 -1.0834355E-011  3.0223472E-009 -4.1381460E-008 -4.1016875E-012  1.7788806E-009 -1.4819658E-009  9.6543440E-011  3.5887033E-009 -4.4266105E-009  1.2275741E-010  5.1400854E-009 -8.5441220E-009  1.0125313E-010  6.4428646E-009 -1.3710767E-008  8.2723356E-011  7.5069776E-009 -1.9752825E-008  6.5773704E-011  8.3346394E-009 -2.6495308E-008  4.9476604E-011  8.9219402E-009 -3.3762388E-008  3.2721742E-011  9.2501745E-009 -4.1396327E-008  1.4638736E-011  1.7788806E-009 -1.4819658E-009 -9.6543440E-011  3.5887033E-009 -4.4266105E-009 -1.2275741E-010  5.1400854E-009 -8.5441220E-009 -1.0125313E-010  6.4428646E-009 -1.3710767E-008 -8.2723353E-011  7.5069776E-009 -1.9752825E-008 -6.5773699E-011  8.3346394E-009 -2.6495308E-008 -4.9476597E-011  8.9219402E-009 -3.3762388E-008 -3.2721734E-011  9.2501745E-009 -4.1396327E-008 -1.4638726E-011
        </DataArray>
        <DataArray type="Float64" Name="stress" NumberOfComponents="6" format="ascii">
  6.4728739E+003  1.0545990E+003  1.0545990E+003 -1.0413379E+003  1.1069372E-008  5.3770394E+002 -6.4728739E+003 -1.0545990E+003 -1.0545990E+003 -1.0413379E+003  1.1049001E-008 -5.3770394E+002 -6.4728739E+003 -1.0545990E+003 -1.0545990E+003 -1.0413379E+003 -1.0408146E-008  5.3770394E+002  6.4728739E+003  1.0545990E+003  1.0545990E+003 -1.0413379E+003 -1.0387855E-008 -5.3770394E+002 -2.3636766E+002  1.9825989E+002  5.7114415E+000 -2.4810645E+002  6.3152089E+000  1.3605611E+001 -2.3636766E+002  1.9825989E+002  5.7114415E+000 -2.4810645E+002 -6.3152089E+000 -1.3605611E+001  2.3636766E+002 -1.9825989E+002 -5.7114415E+000 -2.4810645E+002  6.3152089E+000 -1.3605611E+001  2.3636766E+002 -1.9825989E+002 -5.7114415E+000 -2.4810645E+002 -6.3152089E+000  1.3605611E+001  3.2725081E+003  5.3317639E+002  5.3317639E+002 -7.2039269E+002 -7.6502847E-009  3.2318956E+002  1.0500675E+003  1.7108321E+002  1.7108321E+002 -6.5318048E+002  1.3523977E-009  1.0725555E+002 -1.0500675E+003 -1.7108321E+002 -1.7108321E+002 -6.5318048E+002  1.3461989E-009 -1.0725555E+002 -3.2725081E+003 -5.3317639E+002 -5.3317639E+002 -7.2039269E+002 -7.6670701E-009 -3.2318956E+002 -6.2089745E+003 -1.0116029E+003 -1.0116029E+003 -1.1634482E+003  1.0727284E-008  1.3193450E+002 -6.2089745E+003 -1.0116029E+003 -1.0116029E+003 -1.1634482E+003 -1.0086913E-008 -1.3193450E+002  3.2725081E+003  5.3317639E+002  5.3317639E+002 -7.2039269E+002  8.3283276E-009 -3.2318956E+002  1.0500675E+003  1.7108321E+002  1.7108321E+002 -6.5318048E+002 -6.8497807E-010 -1.0725555E+002 -1.0500675E+003 -1.7108321E+002 -1.7108321E+002 -6.5318048E+002 -6.9118659E-010  1.0725555E+002 -3.2725081E+003 -5.3317639E+002 -5.3317639E+002 -7.2039269E+002  8.3115763E-009  3.2318956E+002  6.2089745E+003  1.0116029E+003  1.0116029E+003 -1.1634482E+003  1.0748078E-008 -1.3193450E+002  6.2089745E+003  1.0116029E+003  1.0116029E+003 -1.1634482E+003 -1.0066234E-008  1.3193450E+002 -5.3579706E+003 -2.5768365E+001  1.5936424E+001 -1.0426459E+002  6.1664698E+001 -1.1153303E+002 -4.4123117E+003 -7.8216817E+001 -3.4832545E+001 -1.6284419E+002  2.4194143E+001  8.4719809E+001 -3.9255427E+003 -6.2812654E+001 -2.0689405E+001 -1.7177732E+002  2.6610479E+001  1.9065969E+001 -3.2641749E+003 -5.3709837E+001 -2.1948971E+001 -1.7185813E+002  2.1511907E+001  3.0751203E+001 -2.6193385E+003 -4.3826775E+001 -1.8342334E+001 -1.7178481E+002  1.7360408E+001  2.4441959E+001 -1.9555301E+003 -3.3030132E+001 -1.2330085E+001 -1.7369616E+002  1.2881627E+001  2.4066117E+001 -1.3616311E+003 -3.4483170E+001 -1.2506574E+001 -1.4450200E+002  1.0633699E+001  2.4852941E+001 -6.8596946E+002 -2.8994928E+001 -8.6304826E+000 -1.7756577E+002  7.9815622E+000  2.1253083E+001 -2.3624207E+002  2.0305450E+002  9.8376414E+000 -2.4345931E+002  1.9864276E+000  1.7825035E+000 -2.3624207E+002  2.0305450E+002  9.8376414E+000 -2.4345931E+002 -1.9864276E+000 -1.7825035E+000 -5.3579706E+003 -2.5768365E+001  1.5936424E+001 -1.0426459E+002 -6.1664698E+001  1.1153303E+002 -4.4123117E+003 -7.8216817E+001 -3.4832545E+001 -1.6284419E+002 -2.4194143E+001 -8.4719809E+001 -3.9255427E+003 -6.2812654E+001 -2.0689405E+001 -1.7177732E+002 -2.6610479E+001 -1.9065969E+001 -3.2641749E+003 -5.3709837E+001 -2.1948971E+001 -1.7185813E+002 -2.1511907E+001 -3.0751203E+001 -2.6193385E+003 -4.3826775E+001 -1.8342334E+001 -1.7178481E+002 -1.7360408E+001 -2.4441959E+001 -1.9555301E+003 -3.3030132E+001 -1.2330085E+001 -1.7369616E+002 -1.2881627E+001 -2.4066117E+001 -1.3616311E+003 -3.4483170E+001 -1.2506574E+001 -1.4450200E+002 -1.0633699E+001 -2.4852941E+001 -6.8596946E+002 -2.8994929E+001 -8.6304826E+000 -1.7756577E+002 -7.9815622E+000 -2.1253083E+001 -6.1436249E+001  3.5189100E+002  1.8918070E+001 -4.5847987E+002 -3.6754718E+000  1.1365974E+001 -2.3545487E+000  2.4419437E+002  1.4017535E+001 -6.5751451E+002 -2.6262655E+001  6.6021085E+000  2.3545488E+000 -2.4419437E+002 -1.4017535E+001 -6.5751451E+002 -2.6262655E+001 -6.6021085E+000  6.1436249E+001 -3.5189100E+002 -1.8918070E+001 -4.5847987E+002 -3.6754718E+000 -1.1365974E+001  2.3624207E+002 -2.0305450E+002 -9.8376414E+000 -2.4345931E+002  1.9864276E+000 -1.7825035E+000  2.3624207E+002 -2.0305450E+002 -9.8376414E+000 -2.4345931E+002 -1.9864276E+000  1.7825035E+000 -6.1436249E+001  3.5189100E+002  1.8918070E+001 -4.5847987E+002  3.6754718E+000 -1.1365974E+001 -2.3545487E+000  2.4419437E+002  1.4017535E+001 -6.5751451E+002  2.6262655E+001 -6.6021085E+000  2.3545488E+000 -2.4419437E+002 -1.4017535E+001 -6.5751451E+002  2.6262655E+001  6.6021085E+000  6.1436249E+001 -3.5189100E+002 -1.8918070E+001 -4.5847987E+002  3.6754718E+000  1.1365974E+001  6.8596946E+002  2.8994929E+001  8.6304826E+000 -1.7756577E+002  7.9815622E+000 -2.1253083E+001  1.3616311E+003  3.4483170E+001  1.2506574E+001 -1.4450200E+002  1.0633699E+001 -2.4852941E+001  1.9555301E+003  3.3030132E+001  1.2330085E+001 -1.7369616E+002  1.2881627E+001 -2.4066117E+001  2.6193385E+003  4.3826775E+001  1.8342334E+001 -1.7178481E+002  1.7360408E+001 -2.4441959E+001  3.2641749E+003  5.3709837E+001  2.1948971E+001 -1.7185813E+002  2.1511907E+001 -3.0751203E+001  3.9255427E+003  6.2812654E+001  2.0689405E+001 -1.7177732E+002  2.6610479E+001 -1.9065969E+001  4.4123117E+003  7.8216817E+001  3.4832545E+001 -1.6284419E+002  2.4194143E+001 -8.4719809E+001  5.3579706E+003  2.5768365E+001 -1.5936424E+001 -1.0426459E+002  6.1664698E+001  1.1153303E+002  6.8596946E+002  2.8994928E+001  8.6304826E+000 -1.7756577E+002 -7.9815622E+000  2.1253083E+001  1.3616311E+003  3.4483170E+001  1.2506574E+001 -1.4450200E+002 -1.0633699E+001  2.4852941E+001  1.9555301E+003  3.3030132E+001  1.2330085E+001 -1.7369616E+002 -1.2881627E+001  2.4066117E+001  2.6193385E+003  4.3826775E+001  1.8342334E+001 -1.7178481E+002 -1.7360408E+001  2.4441959E+001  3.2641749E+003  5.3709837E+001  2.1948971E+001 -1.7185813E+002 -2.1511907E+001  3.0751203E+001  3.9255427E+003  6.2812654E+001  2.0689405E+001 -1.7177732E+002 -2.6610479E+001  1.9065969E+001  4.4123117E+003  7.8216817E+001  3.4832545E+001 -1.6284419E+002 -2.4194143E+001  8.4719809E+001  5.3579706E+003  2.5768365E+001 -1.5936424E+001 -1.0426459E+002 -6.1664698E+001 -1.1153303E+002  3.0422617E+003  4.9566329E+002  4.9566329E+002 -8.3959522E+002  8.4226114E-009  8.1156082E+001  3.0422617E+003  4.9566329E+002  4.9566329E+002 -8.3959522E+002 -7.7447817E-009 -8.1156082E+001  9.7656841E+002  1.5910831E+002  1.5910831E+002 -7.7455975E+002 -2.7823295E-009  2.7118402E+001  9.7656841E+002  1.5910831E+002  1.5910831E+002 -7.7455975E+002  3.4499301E-009 -2.7118402E+001 -9.7656841E+002 -1.5910831E+002 -1.5910831E+002 -7.7455975E+002 -2.7887183E-009 -2.7118402E+001 -9.7656841E+002 -1.5910831E+002 -1.5910831E+002 -7.7455975E+002  3.4434683E-009  2.7118402E+001 -3.0422617E+003 -4.9566329E+002 -4.9566329E+002 -8.3959522E+002  8.4059277E-009 -8.1156082E+001 -3.0422617E+003 -4.9566329E+002 -4.9566329E+002 -8.3959522E+002 -7.7613689E-009  8.1156082E+001 -5.4167554E+003 -5.2460627E+001 -1.8559793E+002 -1.6377968E+002 -1.3463389E+001 -3.4703926E+001 -5.4167554E+003 -5.2460627E+001 -1.8559793E+002 -1.6377968E+002  1.3463389E+001  3.4703926E+001 -4.5651214E+003 -8.6280726E+001 -1.2436625E+001 -1.5094426E+002 -1.1219982E+001  6.8103023E+000 -4.5651214E+003 -8.6280726E+001 -1.2436625E+001 -1.5094426E+002  1.1219982E+001 -6.8103022E+000 -3.9320312E+003 -6.6168926E+001 -1.6044827E+001 -1.5372462E+002 -1.0527041E+001  1.1433632E+001 -3.9320312E+003 -6.6168926E+001 -1.6044827E+001 -1.5372462E+002  1.0527041E+001 -1.1433632E+001 -3.2661414E+003 -5.6560315E+001 -1.7322366E+001 -1.5351866E+002 -8.4341950E+000  2.2143507E+000 -3.2661414E+003 -5.6560315E+001 -1.7322366E+001 -1.5351866E+002  8.4341950E+000 -2.2143505E+000 -2.6167012E+003 -4.5748264E+001 -1.5858887E+001 -1.5351774E+002 -6.8406024E+000  3.4697915E+000 -2.6167012E+003 -4.5748264E+001 -1.5858887E+001 -1.5351774E+002  6.8406024E+000 -3.4697913E+000 -1.9562142E+003 -3.4349513E+001 -9.8202676E+000 -1.5656018E+002 -5.0848350E+000  2.6570712E+000 -1.9562142E+003 -3.4349513E+001 -9.8202676E+000 -1.5656018E+002  5.0848350E+000 -2.6570711E+000 -1.3644754E+003 -3.4674182E+001 -1.4076794E+001 -1.2738504E+002 -3.5063328E+000  2.9872882E+000 -1.3644754E+003 -3.4674182E+001 -1.4076794E+001 -1.2738504E+002  3.5063328E+000 -2.9872881E+000 -6.8740032E+002 -2.5151529E+001 -7.5399080E+000 -1.6607976E+002 -1.7148648E+000  7.3514527E-001 -6.8740032E+002 -2.5151529E+001 -7.5399080E+000 -1.6607976E+002  1.7148648E+000 -7.3514527E-001 -5.9872539E+001  3.6506540E+002  2.9397897E+001 -4.4534411E+002 -4.7587753E+000 -2.6139063E+000 -5.9872539E+001  3.6506540E+002  2.9397897E+001 -4.4534411E+002  4.7587753E+000  2.6139063E+000 -1.8814490E+000  2.5498580E+002  2.3564384E+001 -6.3183127E+002 -8.7052524E+000 -1.2494637E+000 -1.8814490E+000  2.5498580E+002  2.3564384E+001 -6.3183127E+002  8.7052524E+000  1.2494637E+000  1.8814491E+000 -2.5498580E+002 -2.3564384E+001 -6.3183127E+002 -8.7052524E+000  1.2494637E+000  1.8814491E+000 -2.5498580E+002 -2.3564384E+001 -6.3183127E+002  8.7052524E+000 -1.2494637E+000  5.9872539E+001 -3.6506540E+002 -2.9397897E+001 -4.4534411E+002 -4.7587753E+000  2.6139063E+000  5.9872539E+001 -3.6506540E+002 -2.9397897E+001 -4.4534411E+002  4.7587753E+000 -2.6139063E+000  6.8740032E+002  2.5151529E+001  7.5399080E+000 -1.6607976E+002 -1.7148648E+000 -7.3514527E-001  6.8740032E+002  2.5151529E+001  7.5399080E+000 -1.6607976E+002  1.7148648E+000  7.3514527E-001  1.3644754E+003  3.4674182E+001  1.4076794E+001 -1.2738504E+002 -3.5063328E+000 -2.9872881E+000  1.3644754E+003  3.4674182E+001  1.4076794E+001 -1.2738504E+002  3.5063328E+000  2.9872882E+000  1.9562142E+003  3.4349513E+001  9.8202676E+000 -1.5656018E+002 -5.0848350E+000 -2.6570711E+000  1.9562142E+003  3.4349513E+001  9.8202676E+000 -1.5656018E+002  5.0848350E+000  2.6570712E+000  2.6167012E+003  4.5748264E+001  1.5858887E+001 -1.5351774E+002 -6.8406024E+000 -3.4697913E+000  2.6167012E+003  4.5748264E+001  1.5858887E+001 -1.5351774E+002  6.8406024E+000  3.4697915E+000  3.2661414E+003  5.6560315E+001  1.7322366E+001 -1.5351866E+002 -8.4341950E+000 -2.2143505E+000  3.2661414E+003  5.6560315E+001  1.7322366E+001 -1.5351866E+002  8.4341950E+000  2.2143507E+000  3.9320312E+003  6.6168926E+001  1.6044827E+001 -1.5372462E+002 -1.0527041E+001 -1.1433632E+001  3.9320312E+003  6.6168926E+001  1.6044827E+001 -1.5372462E+002  1.0527041E+001  1.1433632E+001  4.5651214E+003  8.6280726E+001  1.2436625E+001 -1.5094426E+002 -1.1219982E+001 -6.8103022E+000  4.5651214E+003  8.6280726E+001  1.2436625E+001 -1.5094426E+002  1.1219982E+001  6.8103023E+000  5.4167554E+003  5.2460627E+001  1.8559793E+002 -1.6377968E+002 -1.3463389E+001  3.4703926E+001  5.4167554E+003  5.2460627E+001  1.8559793E+002 -1.6377968E+002  1.3463389E+001 -3.4703926E+001  2.9941053E+003  1.9944814E+001 -3.9841619E+001 -2.9337353E+002 -6.9533111E+001 -5.1204074E+001  2.6884073E+003 -2.7425365E+001 -3.0784857E+000 -4.7484725E+002 -4.2694367E+001  5.0533675E+001  2.3299812E+003 -2.7479219E+001 -1.0603919E+001 -4.3254660E+002 -3.2128812E+001  8.5149917E+000  1.9549572E+003 -1.9109683E+001 -3.6745658E+000 -4.5251926E+002 -2.5602892E+001  1.0259291E+001  1.5621599E+003 -1.5053462E+001 -3.1056277E+000 -4.4739456E+002 -2.0437130E+001  7.2722149E+000  1.1717655E+003 -7.6673693E+000 -2.0577574E+000 -4.4718003E+002 -1.5460901E+001  7.7305061E+000  7.5861508E+002  7.8290225E+000 -2.3549705E+000 -4.3948998E+002 -1.1328870E+001  9.3144216E+000  3.2687045E+002  6.8340841E+000 -3.0048378E-001 -4.4570570E+002 -6.3103119E+000  1.1690439E+001  9.6537835E+002  1.0220351E+002 -3.0248556E+000 -4.7684928E+002 -7.0157816E+001 -1.8324543E+001  8.7975730E+002 -8.2359257E+000 -1.8846385E+000 -7.4843085E+002 -5.3226478E+001  1.6922491E+001  7.8774697E+002  2.9300891E+000 -2.6069888E-001 -7.3196958E+002 -3.6906646E+001  3.1413520E+000  6.5144141E+002  2.1948247E+000  5.2961883E-001 -7.4094328E+002 -2.8084262E+001  3.4361203E+000  5.2277780E+002  2.7237131E+000  7.3778410E-001 -7.3854470E+002 -2.2394925E+001  2.1802187E+000  3.8874045E+002  4.3251032E+000  5.1711130E-001 -7.3802259E+002 -1.6912698E+001  2.5918906E+000  2.3844997E+002  1.4293167E+001 -5.2921939E-002 -7.6600799E+002 -1.0678189E+001  3.1425788E+000  9.7065315E+001  9.1160806E+000  1.9724148E+000 -7.3332531E+002 -2.1362668E+000  5.4249205E+000 -9.6537835E+002 -1.0220351E+002  3.0248556E+000 -4.7684928E+002 -7.0157816E+001  1.8324543E+001 -8.7975730E+002  8.2359257E+000  1.8846385E+000 -7.4843085E+002 -5.3226478E+001 -1.6922491E+001 -7.8774697E+002 -2.9300891E+000  2.6069886E-001 -7.3196958E+002 -3.6906646E+001 -3.1413519E+000 -6.5144141E+002 -2.1948247E+000 -5.2961884E-001 -7.4094328E+002 -2.8084262E+001 -3.4361202E+000 -5.2277780E+002 -2.7237131E+000 -7.3778410E-001 -7.3854470E+002 -2.2394925E+001 -2.1802186E+000 -3.8874045E+002 -4.3251032E+000 -5.1711130E-001 -7.3802259E+002 -1.6912698E+001 -2.5918905E+000 -2.3844997E+002 -1.4293166E+001  5.2921945E-002 -7.6600799E+002 -1.0678189E+001 -3.1425788E+000 -9.7065315E+001 -9.1160806E+000 -1.9724148E+000 -7.3332531E+002 -2.1362668E+000 -5.4249205E+000 -2.9941053E+003 -1.9944814E+001  3.9841619E+001 -2.9337353E+002 -6.9533111E+001  5.1204074E+001 -2.6884073E+003  2.7425365E+001  3.0784857E+000 -4.7484725E+002 -4.2694367E+001 -5.0533675E+001 -2.3299812E+003  2.7479219E+001  1.0603919E+001 -4.3254660E+002 -3.2128812E+001 -8.5149917E+000 -1.9549572E+003  1.9109683E+001  3.6745658E+000 -4.5251926E+002 -2.5602892E+001 -1.0259290E+001 -1.5621599E+003  1.5053462E+001  3.1056277E+000 -4.4739456E+002 -2.0437130E+001 -7.2722149E+000 -1.1717655E+003  7.6673693E+000  2.0577574E+000 -4.4718003E+002 -1.5460901E+001 -7.7305060E+000 -7.5861508E+002 -7.8290225E+000  2.3549705E+000 -4.3948998E+002 -1.1328870E+001 -9.3144216E+000 -3.2687045E+002 -6.8340840E+000  3.0048378E-001 -4.4570570E+002 -6.3103119E+000 -1.1690439E+001 -2.9941053E+003 -1.9944814E+001  3.9841619E+001 -2.9337353E+002  6.9533111E+001 -5.1204074E+001 -2.6884073E+003  2.7425365E+001  3.0784857E+000 -4.7484725E+002  4.2694367E+001  5.0533675E+001 -2.3299812E+003  2.7479219E+001  1.0603919E+001 -4.3254660E+002  3.2128812E+001  8.5149917E+000 -1.9549572E+003  1.9109683E+001  3.6745658E+000 -4.5251926E+002  2.5602892E+001  1.0259291E+001 -1.5621599E+003  1.5053462E+001  3.1056277E+000 -4.4739456E+002  2.0437130E+001  7.2722149E+000 -1.1717655E+003  7.6673693E+000  2.0577574E+000 -4.4718003E+002  1.5460901E+001  7.7305061E+000 -7.5861508E+002 -7.8290225E+000  2.3549705E+000 -4.3948998E+002  1.1328870E+001  9.3144216E+000 -3.2687045E+002 -6.8340840E+000  3.0048378E-001 -4.4570570E+002  6.3103119E+000  1.1690439E+001 -9.6537835E+002 -1.0220351E+002  3.0248556E+000 -4.7684928E+002  7.0157816E+001 -1.8324543E+001 -8.7975730E+002  8.2359258E+000  1.8846385E+000 -7.4843085E+002  5.3226478E+001  1.6922491E+001 -7.8774697E+002 -2.9300891E+000  2.6069888E-001 -7.3196958E+002  3.6906646E+001  3.1413520E+000 -6.5144141E+002 -2.1948247E+000 -5.2961882E-001 -7.4094328E+002  2.8084262E+001  3.4361203E+000 -5.2277780E+002 -2.7237131E+000 -7.3778410E-001 -7.3854470E+002  2.2394925E+001  2.1802187E+000 -3.8874045E+002 -4.3251032E+000 -5.1711130E-001 -7.3802259E+002  1.6912698E+001  2.5918906E+000 -2.3844997E+002 -1.4293166E+001  5.2921938E-002 -7.6600799E+002  1.0678189E+001  3.1425788E+000 -9.7065315E+001 -9.1160806E+000 -1.9724148E+000 -7.3332531E+002  2.1362668E+000  5.4249205E+000  9.6537835E+002  1.0220351E+002 -3.0248556E+000 -4.7684928E+002  7.0157816E+001  1.8324543E+001  8.7975730E+002 -8.2359257E+000 -1.8846385E+000 -7.4843085E+002  5.3226478E+001 -1.6922491E+001  7.8774697E+002  2.9300892E+000 -2.6069886E-001 -7.3196958E+002  3.6906646E+001 -3.1413519E+000  6.5144141E+002  2.1948247E+000  5.2961884E-001 -7.4094328E+002  2.8084262E+001 -3.4361202E+000  5.2277780E+002  2.7237131E+000  7.3778410E-001 -7.3854470E+002  2.2394925E+001 -2.1802186E+000  3.8874045E+002  4.3251032E+000  5.1711130E-001 -7.3802259E+002  1.6912698E+001 -2.5918905E+000  2.3844997E+002  1.4293167E+001 -5.2921945E-002 -7.6600799E+002  1.0678189E+001 -3.1425788E+000  9.7065315E+001  9.1160806E+000  1.9724148E+000 -7.3332531E+002  2.1362668E+000 -5.4249205E+000  2.9941053E+003  1.9944814E+001 -3.9841619E+001 -2.9337353E+002  6.9533111E+001  5.1204074E+001  2.6884073E+003 -2.7425365E+001 -3.0784857E+000 -4.7484725E+002  4.2694367E+001 -5.0533675E+001  2.3299812E+003 -2.7479219E+001 -1.0603919E+001 -4.3254660E+002  3.2128812E+001 -8.5149917E+000  1.9549572E+003 -1.9109683E+001 -3.6745658E+000 -4.5251926E+002  2.5602892E+001 -1.0259290E+001  1.5621599E+003 -1.5053462E+001 -3.1056277E+000 -4.4739456E+002  2.0437130E+001 -7.2722149E+000  1.1717655E+003 -7.6673693E+000 -2.0577574E+000 -4.4718003E+002  1.5460901E+001 -7.7305060E+000  7.5861508E+002  7.8290225E+000 -2.3549705E+000 -4.3948998E+002  1.1328870E+001 -9.3144216E+000  3.2687045E+002  6.8340841E+000 -3.0048378E-001 -4.4570570E+002  6.3103119E+000 -1.1690439E+001 -3.0340240E+003 -4.1154711E+001 -7.5847993E+001 -3.8134776E+002 -9.3205277E+000 -1.0993317E+001 -2.8264920E+003  9.2112757E+000  3.7453531E+000 -4.6639249E+002 -6.3877715E+000  5.0786770E+000 -2.3385418E+003  2.0779115E+001  9.7162301E+000 -4.0703540E+002 -9.9887184E+000  4.2309801E+000 -1.9567459E+003  1.3707494E+001  1.6811774E+000 -4.2294585E+002 -8.6835034E+000 -2.6308198E+000 -1.5611415E+003  1.1204277E+001  9.5646179E-001 -4.1877567E+002 -7.0369847E+000 -1.9125060E+000 -1.1733448E+003  5.0663803E+000  3.2823972E-001 -4.1942363E+002 -5.2146663E+000 -2.2397774E+000 -7.6080489E+002 -7.2544559E+000  9.8822790E-001 -4.1058539E+002 -3.4986797E+000 -1.7291359E+000 -3.2715629E+002  2.0834547E+000  2.5289394E+000 -4.2357493E+002 -1.7554415E+000 -1.8214426E+000 -3.0340240E+003 -4.1154711E+001 -7.5847993E+001 -3.8134776E+002  9.3205277E+000  1.0993317E+001 -2.8264920E+003  9.2112757E+000  3.7453531E+000 -4.6639249E+002  6.3877715E+000 -5.0786768E+000 -2.3385418E+003  2.0779115E+001  9.7162301E+000 -4.0703540E+002  9.9887184E+000 -4.2309800E+000 -1.9567459E+003  1.3707494E+001  1.6811774E+000 -4.2294585E+002  8.6835034E+000  2.6308199E+000 -1.5611415E+003  1.1204277E+001  9.564617