<?xml version="1.0"?>
<VTKFile type="UnstructuredGrid" version="0.1" byte_order="LittleEndian" header_type="UInt32" compressor="vtkZLibDataCompressor">
  <UnstructuredGrid>
    <Piece NumberOfPoints="104" NumberOfCells="416">
      <PointData Scalars="sensitivity">
        <DataArray type="Float64" Name="sensitivity" format="ascii" RangeMin="-680294.65059" RangeMax="4.8540957762e-033">
          1.1625075322e-315 -339725.20511 -466979.21422 -417563.40445 -280047.11023 -257161.76387
          -379938.62951 -200014.88067 -314696.43677 -245043.81193 -134807.1556 -263716.81732
          -428521.10018 -251006.43915 -177291.92076 -127257.60447 -209134.10417 -168507.14889
          -274458.39821 -348977.86518 -509741.29883 -603657.78256 -496539.37209 -264612.64286
          -152470.19939 -268404.21293 -202895.41733 -211212.76652 -224425.17598 -549121.72985
          -592864.94888 -602188.79422 -436067.01955 -577164.48173 -381727.58894 -227630.97274
          -182087.21016 -217952.20619 -278045.58045 -415321.29175 -680294.65059 -327192.08139
          -492338.75037 -443920.6019 -431091.01123 -477407.30246 -489648.30963 -21439.916089
          -33003.771079 -61609.423907 -25535.230217 -46571.39604 -86552.338258 -193667.66324
          -484886.98103 -489254.25574 -243661.21545 -110651.27667 -41864.654026 -29516.408865
          -52141.31783 -42281.876739 -30534.618464 -507386.44418 -275992.74455 -133096.34193
          -62073.398382 -90928.782021 -169508.19875 -271620.88797 -423004.59602 -288788.62102
          -350901.34394 -433321.6299 -312510.63182 -514887.42005 -122586.55371 -171446.8999
          -321700.82645 -275297.76981 -154409.82578 -232235.83868 -197455.74077 -189749.1007
          -455871.64197 -371414.66931 -196008.66873 -247748.76099 -248912.16037 -258179.80713
          -200142.00072 -74565.93834 -58983.234237 -128496.649 -121811.22932 -79208.778911
          -70811.29425 -273286.68878 -65851.711272 -195929.56625 -56920.838718 -68509.373965
          -210097.59914 -84120.957704 -107101.17697 6.0134700189e-154 1.3973685027e-076 1.3980432861e-076
          6.036868733e-154 6.9631220021e-077 1.3980432861e-076 1.3980432861e-076 2.4356600956e-154 1.3980432758e-076
          1.3980432861e-076 6.013470374e-154 6.5262040014e-038 4.6729700133e-062 1.8809619856e-153 6.0133448312e-154
          1.3980432861e-076 1.3980432861e-076 6.5549091409e-260 1.3980406502e-076 1.3980432861e-076 6.0135614182e-154
          1.4454646954e-047 6.1286515175e-062 6.753653078e-067 5.9814224592e-154 1.3980432861e-076 1.3980432861e-076
          6.0134700184e-154 1.3973685027e-076 1.3980432861e-076 6.036868733e-154 8.4178979735e-053 4.2800637387e-033
          2.213388061e-052 2.4356600956e-154 1.3980432758e-076 1.3980432861e-076 6.013470374e-154 1.3035428584e-076
          1.3980432861e-076 1.2073737466e-153 6.0133448312e-154 2.909655933e-033 8.1716515484e-043 6.5549091409e-260
          6.0134700181e-154 1.9664751455e-259 9.1622167813e-072 3.8903784876e-033 6.0135898702e-154 3.2424566178e-086
          1.3980432861e-076 1.3980432861e-076 5.9814224592e-154 1.3980432861e-076 1.3980432861e-076 6.0134700184e-154
          1.3997352262e-076 9.9600996067e-043 6.05001344e-154 6.9631220021e-077 1.3980432861e-076 1.3980432861e-076
          2.4356600956e-154 1.3980432758e-076 1.3980432861e-076 6.013470374e-154 1.8311799481e-076 1.5197843454e-047
          1.357705927e-153 6.0133448312e-154 1.3980432861e-076 1.3980432861e-076 6.5549091409e-260 1.3980406502e-076
          1.3980432861e-076 6.0135614182e-154 2.101199217e-052 1.5181858783e-047 2.7388661631e-057 5.9814224592e-154
          1.3980432861e-076 1.3980432861e-076 6.0134700184e-154 1.3973685027e-076 1.3980432861e-076 6.036868733e-154
          6.9631220021e-077 1.3980432861e-076 1.3980432861e-076 2.4356600956e-154 3.4561496503e-086 4.8540957762e-033
          6.0134704852e-154 1.3035428584e-076 1.3980432861e-076 1.2073737466e-153 6.0133448312e-154 1.3980432861e-076
          1.3980432861e-076 6.5549091409e-260 1.3980498952e-076 3.6978474594e-057 6.0136127647e-154 3.2424566178e-086
          1.3980432861e-076 1.3980432861e-076
        </DataArray>
      </PointData>
      <CellData>
      </CellData>
      <Points>
        <DataArray type="Float64" Name="Points" NumberOfComponents="3" format="ascii" RangeMin="1.2237569955e-005" RangeMax="122.47448714">
          -2.5430961e-006 5.1831471e-006 50.000006 -8.3531598e-007 16.666705 50.000002
          5.0234223e-007 33.333305 49.999996 2.4053408e-006 50.000005 49.999992
          4.1337984e-006 50.000001 33.333291 6.879538e-006 49.999997 16.666691
          8.279957e-006 49.999992 -8.3692981e-006 3.2590886e-006 33.333292 -3.5047967e-006
          -2.0023475e-006 16.666692 1.5683413e-006 -6.9927955e-006 -7.7705808e-006 6.362154e-006
          -5.9368972e-006 -3.4277434e-006 16.666707 -3.7552652e-006 9.4543677e-007 33.333307
          100 -4.8555997e-027 50 100 16.6667 50
          100 33.3333 50 100 50 50
          80 50 49.999999 60 50 49.999997
          40.000001 50.000001 49.999996 20.000002 50.000003 49.999994
          19.999998 2.5574627e-006 50.000005 39.999999 1.0970326e-006 50.000004
          60 2.4550912e-007 50.000002 80 6.0748934e-008 50.000001
          100 -5.8797251e-027 35 100 16.6667 35
          100 33.3333 35 100 50 35
          14.999997 -7.1124582e-007 35.000006 14.999999 16.666699 35.000001
          15.000001 33.333299 34.999997 15.000003 49.999999 34.999993
          32.000002 49.999999 34.999995 49.000001 49.999999 34.999996
          66.000001 49.999999 34.999998 83 50 34.999999
          83 -6.0709326e-007 35.000001 65.999999 -1.0803677e-006 35.000002
          48.999999 -1.4988911e-006 35.000003 31.999998 -1.2969798e-006 35.000005
          14.999993 -7.7387026e-006 15.000006 14.999998 16.666692 15.000001
          15.000003 33.333292 14.999997 15.000008 49.999992 14.999993
          15.000005 49.999996 24.999993 14.999995 -4.1856784e-006 25.000006
          99.99999 -4.1549285e-005 15.000007 99.999997 16.666659 15.000002
          100 33.333259 14.999998 100.00001 49.999958 14.999994
          83.000011 49.999966 14.999994 66.00001 49.999973 14.999994
          49.00001 49.99998 14.999993 32.000009 49.999986 14.999993
          31.999992 -1.3661703e-005 15.000006 48.999991 -2.0128961e-005 15.000006
          65.999991 -2.7000731e-005 15.000006 82.99999 -3.4168778e-005 15.000006
          99.99999 -4.5252532e-005 6.5227228e-006 99.999997 16.666655 2.403725e-006
          100 33.333255 -1.6913428e-006 100.00001 49.999955 -5.8161175e-006
          20.000009 49.999986 -7.0434195e-006 40.00001 49.99998 -6.6083949e-006
          60.00001 49.999972 -6.3434953e-006 80.000011 49.999963 -6.1096276e-006
          79.999991 -3.6587254e-005 6.2443445e-006 59.999991 -2.8248838e-005 5.9742058e-006
          39.999992 -2.0436793e-005 5.7060007e-006 19.999993 -1.3438709e-005 5.5450825e-006
          -4.3696434e-007 20.887601 33.3869 2.1207425e-006 36.931601 32.884395
          1.2726527e-006 29.112396 16.613098 -2.4670791e-006 13.068397 17.115603
          16.7103 25.342603 49.999999 83.2897 24.6574 50
          65.7304 31.8996 49.999999 31.3112 35.445002 49.999998
          34.2696 18.100401 50.000001 68.6888 14.555 50.000001
          47.7263 33.6634 49.999999 52.2737 16.3366 50.000001
          85.5633 25.424399 35 34.365299 17.294498 35.000001
          39.829001 33.614898 34.999998 72.7059 35.478599 34.999999
          69.8167 18.488399 35 52.6851 17.247798 35.000001
          57.577601 34.029698 34.999999 29.436701 25.424387 14.999999
          80.634697 17.294467 15.000002 75.171004 33.614869 14.999998
          42.294104 35.478583 14.999997 45.183298 18.488382 15.000001
          62.314898 17.247775 15.000002 57.422404 34.029677 14.999998
          16.710301 24.657388 -6.3538228e-007 83.289701 25.342562 5.8996656e-008
          34.269603 31.899582 -2.1778129e-006 68.688805 35.444968 -2.6318151e-006
          65.730398 18.10037 1.6264246e-006 31.311197 14.554983 1.9841278e-006
          52.273704 33.663375 -2.3939718e-006 47.726298 16.336577 1.8121396e-006
        </DataArray>
      </Points>
      <Cells>
        <DataArray type="Int64" Name="connectivity" format="ascii" RangeMin="0" RangeMax="103">
          85 75 82 86 33 17
          80 18 29 72 30 70
          26 15 35 27 33 88
          80 17 18 33 84 80
          87 37 79 86 99 94
          91 100 45 11 73 29
          41 30 72 42 94 95
          93 102 56 66 90 100
          97 50 65 60 73 72
          29 70 44 30 42 71
          33 88 84 80 40 41
          69 54 83 21 20 78
          92 102 98 93 99 94
          100 102 29 1 70 74
          14 13 82 75 101 68
          54 93 94 102 93 103
          44 4 71 5 20 21
          83 39 102 103 98 93
          1 28 29 11 89 92
          98 93 50 97 48 60
          100 94 91 90 77 18
          84 80 82 36 13 25
          48 90 59 97 75 35
          16 85 40 8 41 73
          79 36 75 86 68 55
          54 93 100 94 103 102
          23 79 36 75 44 42
          5 71 26 15 14 35
          50 51 91 65 99 94
          102 95 55 94 103 67
          51 99 91 65 91 50
          65 97 7 62 42 43
          37 22 38 87 40 8
          69 41 76 87 86 88
          45 40 41 73 101 68
          69 54 96 62 98 42
          14 35 82 26 88 85
          86 76 89 41 96 42
          59 48 97 60 20 74
          83 78 31 3 71 4
          89 101 54 93 36 79
          37 86 40 45 10 73
          29 1 74 20 39 83
          38 21 38 81 83 87
          58 47 46 57 58 47
          57 59 30 19 31 32
          30 2 71 31 1 28
          20 29 94 56 90 100
          66 57 59 58 14 25
          26 82 80 83 84 77
          101 89 98 93 66 56
          90 57 28 39 20 29
          80 83 77 78 33 88
          17 34 29 72 73 41
          62 42 43 53 83 77
          30 84 77 83 30 74
          2 19 3 31 102 95
          93 92 19 2 30 31
          89 96 98 42 63 53
          92 98 99 100 91 97
          94 56 100 67 41 72
          96 42 2 30 70 74
          57 66 59 90 30 72
          42 71 11 1 70 29
          38 81 87 22 1 28
          11 0 1 28 0 20
          83 29 30 74 101 89
          41 96 7 62 96 42
          72 7 96 42 13 36
          82 75 75 35 85 82
          7 6 62 43 75 35
          82 14 55 67 103 68
          57 90 59 47 68 101
          103 93 55 94 93 103
          42 62 98 53 99 95
          102 64 44 30 71 31
          76 87 88 80 41 30
          29 72 84 77 30 32
          42 72 5 71 18 77
          32 19 52 95 102 92
          89 42 98 53 94 55
          56 67 53 89 92 98
          90 66 59 97 34 88
          76 85 77 19 74 30
          19 2 74 30 40 8
          73 9 17 88 76 34
          33 18 84 32 79 37
          87 22 75 35 14 16
          35 34 16 85 79 75
          76 86 100 66 90 97
          73 72 8 41 83 74
          20 29 39 83 20 29
          99 51 95 64 95 52
          102 64 95 51 52 64
          81 83 87 80 76 87
          80 81 83 77 78 74
          63 52 64 102 56 66
          100 67 8 72 96 41
          7 72 96 8 50 61
          65 60 14 25 82 13
          87 79 22 81 90 91
          97 48 41 8 69 96
          87 79 76 86 81 83
          80 78 7 42 5 43
          1 2 70 74 75 85
          76 86 75 36 82 86
          72 30 70 71 42 44
          5 43 77 19 30 32
          6 7 5 43 22 23
          79 37 91 50 97 48
          101 41 69 96 28 11
          45 29 79 23 36 37
          102 63 92 98 40 73
          10 9 99 91 65 97
          63 52 92 53 89 101
          41 54 41 101 69 54
          59 90 48 47 30 2
          70 71 13 23 36 75
          52 63 92 102 77 18
          32 84 99 94 95 91
          2 3 71 31 29 45
          41 73 30 29 70 74
          24 13 12 36 23 12
          13 36 44 31 71 4
          84 88 87 80 38 81
          22 21 87 79 81 76
          62 63 98 53 11 29
          70 73 24 13 36 25
          67 94 103 100 80 83
          87 84 45 11 10 73
          48 50 60 49 99 51
          91 95 7 72 5 42
          101 89 96 98 38 81
          21 83 55 68 103 93
          17 34 76 16 50 61
          60 49 100 90 91 97
          34 85 76 16 88 17
          76 80 75 85 16 76
          35 14 16 15 81 83
          78 21 103 101 98 93
          99 51 64 65 40 8
          9 69 0 1 11 1
          2 70 4 71 3 4
          5 71 5 6 7 7
          8 72 10 73 9 10
          11 73 2 3 71 5
          7 72 8 9 73 11
          1 70 70 2 71 71
          5 72 72 8 73 70
          71 72 72 73 70 73
          11 70 1 0 20 2
          1 74 3 2 19 12
          13 23 13 14 75 14
          15 16 16 17 76 18
          19 77 20 21 78 22
          23 79 19 2 74 77
          19 74 23 13 75 14
          16 75 16 76 75 17
          18 80 17 80 76 21
          22 81 1 20 74 78
          21 81 80 18 77 81
          22 79 78 81 80 77
          74 78 75 76 79 80
          77 78 78 74 20 81
          79 76 76 80 81 23
          75 79 13 12 24 13
          25 14 15 14 26 27
          15 26 26 14 25 24
          25 13 25 24 36 26
          25 82 27 26 35 28
          29 39 29 30 83 30
          31 32 39 29 83 32
          33 84 34 35 85 36
          37 86 38 39 83 35
          26 82 86 37 87 37
          38 87 32 84 30 33
          34 88 38 83 87 25
          36 82 33 88 84 88
          34 85 86 87 88 84
          88 87 82 36 86 82
          86 85 85 86 88 85
          35 82 83 30 84 84
          87 83 28 45 29 30
          29 41 42 44 30 41
          42 30 40 41 45 42
          43 44 41 29 45 31
          30 44 41 40 54 42
          41 89 43 42 53 46
          47 57 47 48 90 57
          47 90 48 49 50 50
          51 91 52 53 92 54
          55 93 56 57 90 53
          42 89 93 55 94 55
          56 94 51 52 95 50
          91 48 56 90 94 51
          95 91 41 54 89 95
          52 92 93 94 95 95
          92 93 91 95 94 93
          92 89 53 89 92 89
          54 93 90 48 91 90
          91 94 47 46 58 47
          59 48 49 48 60 61
          49 60 60 48 59 58
          59 47 7 6 62 8
          7 96 9 8 69 59
          58 66 60 59 97 61
          60 65 62 63 98 64
          65 99 66 67 100 68
          69 101 69 8 96 99
          65 97 59 66 97 65
          60 97 62 98 96 63
          64 102 67 68 103 7
          62 96 100 67 103 103
          68 101 102 64 99 63
          102 98 100 103 102 97
          66 100 99 97 100 100
          102 99 96 98 101 98
          102 103 103 101 98 96
          101 69 4 3 31 31
          44 4 6 5 43 3
          19 31 16 15 35 17
          16 34 18 17 33 19
          18 32 15 27 35 32
          31 19 33 32 18 34
          33 17 62 6 43 35
          34 16 43 53 62 50
          49 61 51 50 65 52
          51 64 53 52 63 51
          65 64 63 62 53 61
          65 50 64 63 52 43
          5 44 5 4 44 0
          11 28 10 9 40 20
          0 28 40 45 10 12
          23 36 24 12 36 21
          20 39 22 21 38 23
          22 37 21 39 38 28
          39 20 37 36 23 38
          37 22 9 69 40 54
          40 69 46 57 58 55
          54 68 56 55 67 57
          56 66 66 58 57 67
          66 56 68 67 55 69
          68 54 45 28 11 11
          10 45
        </DataArray>
        <DataArray type="Int64" Name="offsets" format="ascii" RangeMin="4" RangeMax="1460">
          4 8 12 16 20 24
          28 32 36 40 44 48
          52 56 60 64 68 72
          76 80 84 88 92 96
          100 104 108 112 116 120
          124 128 132 136 140 144
          148 152 156 160 164 168
          172 176 180 184 188 192
          196 200 204 208 212 216
          220 224 228 232 236 240
          244 248 252 256 260 264
          268 272 276 280 284 288
          292 296 300 304 308 312
          316 320 324 328 332 336
          340 344 348 352 356 360
          364 368 372 376 380 384
          388 392 396 400 404 408
          412 416 420 424 428 432
          436 440 444 448 452 456
          460 464 468 472 476 480
          484 488 492 496 500 504
          508 512 516 520 524 528
          532 536 540 544 548 552
          556 560 564 568 572 576
          580 584 588 592 596 600
          604 608 612 616 620 624
          628 632 636 640 644 648
          652 656 660 664 668 672
          676 680 684 688 692 696
          700 704 708 712 716 720
          724 728 732 736 740 744
          748 752 756 760 764 768
          772 776 780 784 788 792
          796 800 804 808 812 816
          820 824 828 832 836 840
          844 848 851 854 857 860
          863 866 869 872 875 878
          881 884 887 890 893 896
          899 902 905 908 911 914
          917 920 923 926 929 932
          935 938 941 944 947 950
          953 956 959 962 965 968
          971 974 977 980 983 986
          989 992 995 998 1001 1004
          1007 1010 1013 1016 1019 1022
          1025 1028 1031 1034 1037 1040
          1043 1046 1049 1052 1055 1058
          1061 1064 1067 1070 1073 1076
          1079 1082 1085 1088 1091 1094
          1097 1100 1103 1106 1109 1112
          1115 1118 1121 1124 1127 1130
          1133 1136 1139 1142 1145 1148
          1151 1154 1157 1160 1163 1166
          1169 1172 1175 1178 1181 1184
          1187 1190 1193 1196 1199 1202
          1205 1208 1211 1214 1217 1220
          1223 1226 1229 1232 1235 1238
          1241 1244 1247 1250 1253 1256
          1259 1262 1265 1268 1271 1274
          1277 1280 1283 1286 1289 1292
          1295 1298 1301 1304 1307 1310
          1313 1316 1319 1322 1325 1328
          1331 1334 1337 1340 1343 1346
          1349 1352 1355 1358 1361 1364
          1367 1370 1373 1376 1379 1382
          1385 1388 1391 1394 1397 1400
          1403 1406 1409 1412 1415 1418
          1421 1424 1427 1430 1433 1436
          1439 1442 1445 1448 1451 1454
          1457 1460
        </DataArray>
        <DataArray type="UInt8" Name="types" format="ascii" RangeMin="5" RangeMax="10">
          10 10 10 10 10 10
          10 10 10 10 10 10
          10 10 10 10 10 10
          10 10 10 10 10 10
          10 10 10 10 10 10
          10 10 10 10 10 10
          10 10 10 10 10 10
          10 10 10 10 10 10
          10 10 10 10 10 10
          10 10 10 10 10 10
          10 10 10 10 10 10
          10 10 10 10 10 10
          10 10 10 10 10 10
          10 10 10 10 10 10
          10 10 10 10 10 10
          10 10 10 10 10 10
          10 10 10 10 10 10
          10 10 10 10 10 10
          10 10 10 10 10 10
          10 10 10 10 10 10
          10 10 10 10 10 10
          10 10 10 10 10 10
          10 10 10 10 10 10
          10 10 10 10 10 10
          10 10 10 10 10 10
          10 10 10 10 10 10
          10 10 10 10 10 10
          10 10 10 10 10 10
          10 10 10 10 10 10
          10 10 10 10 10 10
          10 10 10 10 10 10
          10 10 10 10 10 10
          10 10 10 10 10 10
          10 10 10 10 10 10
          10 10 10 10 10 10
          10 10 5 5 5 5
          5 5 5 5 5 5
          5 5 5 5 5 5
          5 5 5 5 5 5
          5 5 5 5 5 5
          5 5 5 5 5 5
          5 5 5 5 5 5
          5 5 5 5 5 5
          5 5 5 5 5 5
          5 5 5 5 5 5
          5 5 5 5 5 5
          5 5 5 5 5 5
          5 5 5 5 5 5
          5 5 5 5 5 5
          5 5 5 5 5 5
          5 5 5 5 5 5
          5 5 5 5 5 5
          5 5 5 5 5 5
          5 5 5 5 5 5
          5 5 5 5 5 5
          5 5 5 5 5 5
          5 5 5 5 5 5
          5 5 5 5 5 5
          5 5 5 5 5 5
          5 5 5 5 5 5
          5 5 5 5 5 5
          5 5 5 5 5 5
          5 5 5 5 5 5
          5 5 5 5 5 5
          5 5 5 5 5 5
          5 5 5 5 5 5
          5 5 5 5 5 5
          5 5 5 5 5 5
          5 5 5 5 5 5
          5 5
        </DataArray>
      </Cells>
    </Piece>
  </UnstructuredGrid>
</VTKFile>
