<?xml version="1.0"?>
<VTKFile type="UnstructuredGrid" version="0.1" byte_order="LittleEndian">
  <UnstructuredGrid>
    <Piece NumberOfPoints="104" NumberOfCells="416">
      <PointData>
        <DataArray type="Float64" Name="displacement" NumberOfComponents="3" format="ascii">
 -5.8909455E-006  1.2179510E-005  1.3029126E-005 -1.8016392E-006  1.2104834E-005  3.7780869E-006  1.2378839E-006  1.2303628E-005 -7.0793425E-006  5.7411156E-006  1.2305132E-005 -1.6209634E-005  9.2830159E-006  4.3685436E-006 -1.7078522E-005  1.4819509E-005 -4.7722101E-006 -1.7247338E-005  1.7720453E-005 -1.4082226E-005 -1.6828071E-005  6.8472448E-006 -1.3963467E-005 -6.8848056E-006 -4.6909024E-006 -1.3889739E-005  3.6332545E-006 -1.5471091E-005 -1.3854515E-005  1.3413903E-005 -1.3156460E-005 -4.9655666E-006  1.3982543E-005 -8.5951603E-006  3.7255897E-006  1.3551180E-005 -1.9036040E-034  4.4243401E-030 -1.8020139E-034 -1.1005835E-034 -1.0694256E-034 -1.0686248E-034 -1.0352127E-034 -1.0436788E-034 -4.2673214E-030 -1.5943207E-034 -1.5398956E-034 -1.6733954E-034 -2.6004705E-007  3.4271881E-008 -2.1267087E-006  5.9636805E-007  6.9233686E-007 -5.3061177E-006  2.3303454E-006  2.6034912E-006 -8.7485304E-006  4.4002601E-006  6.2095666E-006 -1.2523362E-005 -4.5422784E-006  6.1943347E-006  1.0011584E-005 -2.5539829E-006  2.6950768E-006  7.7788872E-006 -8.8403401E-007  6.8147548E-007  5.1002729E-006  2.5989221E-007  1.1610309E-007  2.0274188E-006 -1.6922679E-034 -1.8776089E-034 -1.8247639E-034 -1.2242059E-034 -1.3066754E-034 -1.1656960E-034 -1.2457694E-034 -1.3195694E-034 -1.1784988E-034 -2.0773125E-034  1.9906983E-030 -8.1504949E-030 -7.2379641E-006 -2.2023638E-007  1.1372203E-005 -2.7551275E-006 -4.2168647E-007  2.8875608E-006  3.0345625E-006 -3.3987070E-007 -5.4102516E-006  7.8391469E-006 -2.4401789E-007 -1.3961571E-005  4.9790626E-006 -2.2118509E-006 -1.0498038E-005  2.8768867E-006 -2.7026154E-006 -7.3174232E-006  1.4225772E-006 -2.1333438E-006 -4.2924349E-006  5.1432160E-007 -1.0006577E-006 -1.6911179E-006 -5.5736394E-007 -1.1814987E-006  1.7959856E-006 -1.3715880E-006 -2.0757782E-006  4.1649611E-006 -2.4981974E-006 -2.7068501E-006  6.6890364E-006 -4.4836612E-006 -1.9751987E-006  9.1641658E-006 -1.4500941E-005 -1.4346763E-005  1.2199835E-005 -4.0648180E-006 -1.4168039E-005  2.9603535E-006  5.6738006E-006 -1.4186155E-005 -5.3870350E-006  1.6194005E-005 -1.4516001E-005 -1.4853335E-005  1.1834914E-005 -7.1997062E-006 -1.4350255E-005 -1.1112299E-005 -7.2321325E-006  1.1884301E-005 -2.2078134E-005 -8.8493604E-005  1.3545371E-005 -6.6579555E-006 -8.8398232E-005  5.0909089E-006  8.3518197E-006 -8.8353934E-005 -3.3108068E-006  2.3592051E-005 -8.8466699E-005 -1.1732927E-005  2.3396821E-005 -7.2253563E-005 -1.2251341E-005  2.2708242E-005 -5.6437074E-005 -1.2744993E-005  2.1345308E-005 -4.1332071E-005 -1.3230043E-005  1.9235036E-005 -2.7256478E-005 -1.3851724E-005 -1.7673618E-005 -2.7197511E-005  1.2168035E-005 -1.9699742E-005 -4.1359324E-005  1.2481053E-005 -2.1037396E-005 -5.6467633E-005  1.2811423E-005 -2.1843337E-005 -7.2260391E-005  1.3169365E-005 -2.1750774E-005 -9.6070738E-005  1.3539234E-005 -6.3794485E-006 -9.5967903E-005  5.0977874E-006  8.7806955E-006 -9.5966899E-005 -3.3032086E-006  2.4183688E-005 -9.6057900E-005 -1.1744769E-005  1.8711346E-005 -2.6386882E-005 -1.4148268E-005  2.0856916E-005 -4.1465684E-005 -1.3310445E-005  2.2641540E-005 -5.8659991E-005 -1.2777536E-005  2.3727921E-005 -7.7053492E-005 -1.2303306E-005 -2.1323875E-005 -7.7016079E-005  1.3033098E-005 -2.0289327E-005 -5.8647518E-005  1.2565001E-005 -1.8489342E-005 -4.1455745E-005  1.2082610E-005 -1.6319107E-005 -2.6207938E-005  1.1792289E-005 -1.1320378E-006  3.9069396E-006  8.4413311E-007  4.5926546E-006  4.3063991E-006 -9.2920086E-006  2.6318708E-006 -5.2203177E-006 -4.0914434E-006 -5.7042266E-006 -4.7079410E-006  6.0194965E-006 -2.5031757E-007  6.7880234E-006 -1.3861099E-006 -6.2790841E-009 -2.4115932E-008 -4.0605563E-008  1.2757943E-007  2.5361890E-007 -1.4109293E-006  1.1000802E-006  3.9189820E-006 -4.5436207E-006 -1.0116600E-006  3.1966546E-006  1.7197266E-006 -1.0810511E-007  1.1808351E-007  1.6163023E-006  4.7864746E-007  1.4915483E-006 -2.8253213E-006 -4.5015556E-007  1.1879216E-006  1.8740999E-006  4.3008493E-008 -1.0017295E-006 -6.7406571E-008 -1.3774297E-006 -2.4691709E-006  2.0646648E-006  1.6946210E-006 -2.7708683E-006 -3.2309999E-006  8.0147983E-007 -1.8115235E-006 -1.4337970E-006 -5.3485062E-007 -2.0366442E-006  9.6584693E-007 -9.3376688E-007 -2.6371162E-006  1.8170090E-006  1.1769825E-006 -2.7055176E-006 -2.1548597E-006  1.1152322E-006 -2.5017112E-005 -1.0723715E-006 -6.0351177E-006 -6.9976405E-005  4.3456832E-006  8.4011022E-006 -6.4826326E-005 -4.1173126E-006  9.0251203E-006 -3.5487332E-005 -5.9001950E-006 -4.4264402E-006 -3.7899251E-005  2.8998534E-006 -5.7831387E-006 -5.2979811E-005  3.9608011E-006  8.3513259E-006 -4.8578193E-005 -4.7474487E-006  9.3652564E-007 -2.3679597E-005 -9.5568230E-007  1.4792708E-006 -8.0101947E-005  3.2114256E-007  6.5525212E-006 -3.6721678E-005 -4.1766301E-006  1.0248400E-005 -6.6485949E-005 -5.1634781E-006 -4.7364032E-006 -6.3718223E-005  3.5864410E-006 -6.6060115E-006 -3.4442525E-005  4.4440774E-006  8.3714134E-006 -5.1718807E-005 -4.6372258E-006 -5.7574731E-006 -4.7760092E-005  4.0214262E-006
        </DataArray>
      </PointData>
      <CellData>
      </CellData>
      <Points>
        <DataArray type="Float64" NumberOfComponents="3" format="ascii">
 -5.8909455E-006  1.2179510E-005  5.0000013E+001 -1.8016392E-006  1.6666712E+001  5.0000004E+001  1.2378839E-006  3.3333312E+001  4.9999993E+001  5.7411156E-006  5.0000012E+001  4.9999984E+001  9.2830159E-006  5.0000004E+001  3.3333283E+001  1.4819509E-005  4.9999995E+001  1.6666683E+001  1.7720453E-005  4.9999986E+001 -1.6828071E-005  6.8472448E-006  3.3333286E+001 -6.8848056E-006 -4.6909024E-006  1.6666686E+001  3.6332545E-006 -1.5471091E-005 -1.3854515E-005  1.3413903E-005 -1.3156460E-005 -4.9655666E-006  1.6666714E+001 -8.5951603E-006  3.7255897E-006  3.3333314E+001  1.0000000E+002  4.4243401E-030  5.0000000E+001  1.0000000E+002  1.6666700E+001  5.0000000E+001  1.0000000E+002  3.3333300E+001  5.0000000E+001  1.0000000E+002  5.0000000E+001  5.0000000E+001  8.0000000E+001  5.0000000E+001  4.9999998E+001  6.0000001E+001  5.0000001E+001  4.9999995E+001  4.0000002E+001  5.0000003E+001  4.9999991E+001  2.0000004E+001  5.0000006E+001  4.9999987E+001  1.9999995E+001  6.1943347E-006  5.0000010E+001  3.9999997E+001  2.6950768E-006  5.0000008E+001  5.9999999E+001  6.8147548E-007  5.0000005E+001  8.0000000E+001  1.1610309E-007  5.0000002E+001  1.0000000E+002 -1.8776089E-034  3.5000000E+001  1.0000000E+002  1.6666700E+001  3.5000000E+001  1.0000000E+002  3.3333300E+001  3.5000000E+001  1.0000000E+002  5.0000000E+001  3.5000000E+001  1.4999993E+001 -2.2023638E-007  3.5000011E+001  1.4999997E+001  1.6666700E+001  3.5000003E+001  1.5000003E+001  3.3333300E+001  3.4999995E+001  1.5000008E+001  5.0000000E+001  3.4999986E+001  3.2000005E+001  4.9999998E+001  3.4999990E+001  4.9000003E+001  4.9999997E+001  3.4999993E+001  6.6000001E+001  4.9999998E+001  3.4999996E+001  8.3000001E+001  4.9999999E+001  3.4999998E+001  8.2999999E+001 -1.1814987E-006  3.5000002E+001  6.5999999E+001 -2.0757782E-006  3.5000004E+001  4.8999998E+001 -2.7068501E-006  3.5000007E+001  3.1999996E+001 -1.9751987E-006  3.5000009E+001  1.4999985E+001 -1.4346763E-005  1.5000012E+001  1.4999996E+001  1.6666686E+001  1.5000003E+001  1.5000006E+001  3.3333286E+001  1.4999995E+001  1.5000016E+001  4.9999985E+001  1.4999985E+001  1.5000012E+001  4.9999993E+001  2.4999986E+001  1.4999989E+001 -7.2321325E-006  2.5000012E+001  9.9999978E+001 -8.8493604E-005  1.5000014E+001  9.9999993E+001  1.6666612E+001  1.5000005E+001  1.0000001E+002  3.3333212E+001  1.4999997E+001  1.0000002E+002  4.9999912E+001  1.4999988E+001  8.3000023E+001  4.9999928E+001  1.4999988E+001  6.6000023E+001  4.9999944E+001  1.4999987E+001  4.9000021E+001  4.9999959E+001  1.4999987E+001  3.2000019E+001  4.9999973E+001  1.4999986E+001  3.1999982E+001 -2.7197511E-005  1.5000012E+001  4.8999980E+001 -4.1359324E-005  1.5000012E+001  6.5999979E+001 -5.6467633E-005  1.5000013E+001  8.2999978E+001 -7.2260391E-005  1.5000013E+001  9.9999978E+001 -9.6070738E-005  1.3539234E-005  9.9999994E+001  1.6666604E+001  5.0977874E-006  1.0000001E+002  3.3333204E+001 -3.3032086E-006  1.0000002E+002  4.9999904E+001 -1.1744769E-005  2.0000019E+001  4.9999974E+001 -1.4148268E-005  4.0000021E+001  4.9999959E+001 -1.3310445E-005  6.0000023E+001  4.9999941E+001 -1.2777536E-005  8.0000024E+001  4.9999923E+001 -1.2303306E-005  7.9999979E+001 -7.7016079E-005  1.3033098E-005  5.9999980E+001 -5.8647518E-005  1.2565001E-005  3.9999982E+001 -4.1455745E-005  1.2082610E-005  1.9999984E+001 -2.6207938E-005  1.1792289E-005 -1.1320378E-006  2.0887604E+001  3.3386901E+001  4.5926546E-006  3.6931604E+001  3.2884391E+001  2.6318708E-006  2.9112395E+001  1.6613096E+001 -5.7042266E-006  1.3068395E+001  1.7115606E+001  1.6710300E+001  2.5342607E+001  4.9999999E+001  8.3289700E+001  2.4657400E+001  5.0000000E+001  6.5730400E+001  3.1899600E+001  4.9999999E+001  3.1311201E+001  3.5445004E+001  4.9999995E+001  3.4269599E+001  1.8100403E+001  5.0000002E+001  6.8688800E+001  1.4555000E+001  5.0000002E+001  4.7726300E+001  3.3663401E+001  4.9999997E+001  5.2273700E+001  1.6336601E+001  5.0000002E+001  8.5563300E+001  2.5424399E+001  3.5000000E+001  3.4365299E+001  1.7294498E+001  3.5000002E+001  3.9829002E+001  3.3614897E+001  3.4999997E+001  7.2705901E+001  3.5478598E+001  3.4999999E+001  6.9816699E+001  1.8488398E+001  3.5000001E+001  5.2685099E+001  1.7247797E+001  3.5000002E+001  5.7577601E+001  3.4029697E+001  3.4999998E+001  2.9436701E+001  2.5424375E+001  1.4999999E+001  8.0634694E+001  1.7294430E+001  1.5000004E+001  7.5171008E+001  3.3614835E+001  1.4999996E+001  4.2294109E+001  3.5478565E+001  1.4999994E+001  4.5183296E+001  1.8488362E+001  1.5000003E+001  6.2314894E+001  1.7247747E+001  1.5000004E+001  5.7422408E+001  3.4029651E+001  1.4999995E+001  1.6710301E+001  2.4657376E+001 -9.5568230E-007  8.3289701E+001  2.5342520E+001  3.2114256E-007  3.4269607E+001  3.1899563E+001 -4.1766301E-006  6.8688810E+001  3.5444934E+001 -5.1634781E-006  6.5730395E+001  1.8100336E+001  3.5864410E-006  3.1311193E+001  1.4554966E+001  4.4440774E-006  5.2273708E+001  3.3663348E+001 -4.6372258E-006  4.7726294E+001  1.6336552E+001  4.0214262E-006
        </DataArray>
      </Points>
      <Cells>
        <DataArray type="Int32" Name="connectivity" format="ascii">
 85 75 82 86 33 17 80 18 29 72 30 70 26 15 35 27 33 88 80 17 18 33 84 80 87 37 79 86 99 94 91 100 45 11 73 29 41 30 72 42 94 95 93 102 56 66 90 100 97 50 65 60 73 72 29 70 44 30 42 71 33 88 84 80 40 41 69 54 83 21 20 78 92 102 98 93 99 94 100 102 29 1 70 74 14 13 82 75 101 68 54 93 94 102 93 103 44 4 71 5 20 21 83 39 102 103 98 93 1 28 29 11 89 92 98 93 50 97 48 60 100 94 91 90 77 18 84 80 82 36 13 25 48 90 59 97 75 35 16 85 40 8 41 73 79 36 75 86 68 55 54 93 100 94 103 102 23 79 36 75 44 42 5 71 26 15 14 35 50 51 91 65 99 94 102 95 55 94 103 67 51 99 91 65 91 50 65 97 7 62 42 43 37 22 38 87 40 8 69 41 76 87 86 88 45 40 41 73 101 68 69 54 96 62 98 42 14 35 82 26 88 85 86 76 89 41 96 42 59 48 97 60 20 74 83 78 31 3 71 4 89 101 54 93 36 79 37 86 40 45 10 73 29 1 74 20 39 83 38 21 38 81 83 87 58 47 46 57 58 47 57 59 30 19 31 32 30 2 71 31 1 28 20 29 94 56 90 100 66 57 59 58 14 25 26 82 80 83 84 77 101 89 98 93 66 56 90 57 28 39 20 29 80 83 77 78 33 88 17 34 29 72 73 41 62 42 43 53 83 77 30 84 77 83 30 74 2 19 3 31 102 95 93 92 19 2 30 31 89 96 98 42 63 53 92 98 99 100 91 97 94 56 100 67 41 72 96 42 2 30 70 74 57 66 59 90 30 72 42 71 11 1 70 29 38 81 87 22 1 28 11 0 1 28 0 20 83 29 30 74 101 89 41 96 7 62 96 42 72 7 96 42 13 36 82 75 75 35 85 82 7 6 62 43 75 35 82 14 55 67 103 68 57 90 59 47 68 101 103 93 55 94 93 103 42 62 98 53 99 95 102 64 44 30 71 31 76 87 88 80 41 30 29 72 84 77 30 32 42 72 5 71 18 77 32 19 52 95 102 92 89 42 98 53 94 55 56 67 53 89 92 98 90 66 59 97 34 88 76 85 77 19 74 30 19 2 74 30 40 8 73 9 17 88 76 34 33 18 84 32 79 37 87 22 75 35 14 16 35 34 16 85 79 75 76 86 100 66 90 97 73 72 8 41 83 74 20 29 39 83 20 29 99 51 95 64 95 52 102 64 95 51 52 64 81 83 87 80 76 87 80 81 83 77 78 74 63 52 64 102 56 66 100 67 8 72 96 41 7 72 96 8 50 61 65 60 14 25 82 13 87 79 22 81 90 91 97 48 41 8 69 96 87 79 76 86 81 83 80 78 7 42 5 43 1 2 70 74 75 85 76 86 75 36 82 86 72 30 70 71 42 44 5 43 77 19 30 32 6 7 5 43 22 23 79 37 91 50 97 48 101 41 69 96 28 11 45 29 79 23 36 37 102 63 92 98 40 73 10 9 99 91 65 97 63 52 92 53 89 101 41 54 41 101 69 54 59 90 48 47 30 2 70 71 13 23 36 75 52 63 92 102 77 18 32 84 99 94 95 91 2 3 71 31 29 45 41 73 30 29 70 74 24 13 12 36 23 12 13 36 44 31 71 4 84 88 87 80 38 81 22 21 87 79 81 76 62 63 98 53 11 29 70 73 24 13 36 25 67 94 103 100 80 83 87 84 45 11 10 73 48 50 60 49 99 51 91 95 7 72 5 42 101 89 96 98 38 81 21 83 55 68 103 93 17 34 76 16 50 61 60 49 100 90 91 97 34 85 76 16 88 17 76 80 75 85 16 76 35 14 16 15 81 83 78 21 103 101 98 93 99 51 64 65 40 8 9 69 0 1 11 1 2 70 4 71 3 4 5 71 5 6 7 7 8 72 10 73 9 10 11 73 2 3 71 5 7 72 8 9 73 11 1 70 70 2 71 71 5 72 72 8 73 70 71 72 72 73 70 73 11 70 1 0 20 2 1 74 3 2 19 12 13 23 13 14 75 14 15 16 16 17 76 18 19 77 20 21 78 22 23 79 19 2 74 77 19 74 23 13 75 14 16 75 16 76 75 17 18 80 17 80 76 21 22 81 1 20 74 78 21 81 80 18 77 81 22 79 78 81 80 77 74 78 75 76 79 80 77 78 78 74 20 81 79 76 76 80 81 23 75 79 13 12 24 13 25 14 15 14 26 27 15 26 26 14 25 24 25 13 25 24 36 26 25 82 27 26 35 28 29 39 29 30 83 30 31 32 39 29 83 32 33 84 34 35 85 36 37 86 38 39 83 35 26 82 86 37 87 37 38 87 32 84 30 33 34 88 38 83 87 25 36 82 33 88 84 88 34 85 86 87 88 84 88 87 82 36 86 82 86 85 85 86 88 85 35 82 83 30 84 84 87 83 28 45 29 30 29 41 42 44 30 41 42 30 40 41 45 42 43 44 41 29 45 31 30 44 41 40 54 42 41 89 43 42 53 46 47 57 47 48 90 57 47 90 48 49 50 50 51 91 52 53 92 54 55 93 56 57 90 53 42 89 93 55 94 55 56 94 51 52 95 50 91 48 56 90 94 51 95 91 41 54 89 95 52 92 93 94 95 95 92 93 91 95 94 93 92 89 53 89 92 89 54 93 90 48 91 90 91 94 47 46 58 47 59 48 49 48 60 61 49 60 60 48 59 58 59 47 7 6 62 8 7 96 9 8 69 59 58 66 60 59 97 61 60 65 62 63 98 64 65 99 66 67 100 68 69 101 69 8 96 99 65 97 59 66 97 65 60 97 62 98 96 63 64 102 67 68 103 7 62 96 100 67 103 103 68 101 102 64 99 63 102 98 100 103 102 97 66 100 99 97 100 100 102 99 96 98 101 98 102 103 103 101 98 96 101 69 4 3 31 31 44 4 6 5 43 3 19 31 16 15 35 17 16 34 18 17 33 19 18 32 15 27 35 32 31 19 33 32 18 34 33 17 62 6 43 35 34 16 43 53 62 50 49 61 51 50 65 52 51 64 53 52 63 51 65 64 63 62 53 61 65 50 64 63 52 43 5 44 5 4 44 0 11 28 10 9 40 20 0 28 40 45 10 12 23 36 24 12 36 21 20 39 22 21 38 23 22 37 21 39 38 28 39 20 37 36 23 38 37 22 9 69 40 54 40 69 46 57 58 55 54 68 56 55 67 57 56 66 66 58 57 67 66 56 68 67 55 69 68 54 45 28 11 11 10 45
        </DataArray>
        <DataArray type="Int32" Name="offsets" format="ascii">
 4 8 12 16 20 24 28 32 36 40 44 48 52 56 60 64 68 72 76 80 84 88 92 96 100 104 108 112 116 120 124 128 132 136 140 144 148 152 156 160 164 168 172 176 180 184 188 192 196 200 204 208 212 216 220 224 228 232 236 240 244 248 252 256 260 264 268 272 276 280 284 288 292 296 300 304 308 312 316 320 324 328 332 336 340 344 348 352 356 360 364 368 372 376 380 384 388 392 396 400 404 408 412 416 420 424 428 432 436 440 444 448 452 456 460 464 468 472 476 480 484 488 492 496 500 504 508 512 516 520 524 528 532 536 540 544 548 552 556 560 564 568 572 576 580 584 588 592 596 600 604 608 612 616 620 624 628 632 636 640 644 648 652 656 660 664 668 672 676 680 684 688 692 696 700 704 708 712 716 720 724 728 732 736 740 744 748 752 756 760 764 768 772 776 780 784 788 792 796 800 804 808 812 816 820 824 828 832 836 840 844 848 851 854 857 860 863 866 869 872 875 878 881 884 887 890 893 896 899 902 905 908 911 914 917 920 923 926 929 932 935 938 941 944 947 950 953 956 959 962 965 968 971 974 977 980 983 986 989 992 995 998 1001 1004 1007 1010 1013 1016 1019 1022 1025 1028 1031 1034 1037 1040 1043 1046 1049 1052 1055 1058 1061 1064 1067 1070 1073 1076 1079 1082 1085 1088 1091 1094 1097 1100 1103 1106 1109 1112 1115 1118 1121 1124 1127 1130 1133 1136 1139 1142 1145 1148 1151 1154 1157 1160 1163 1166 1169 1172 1175 1178 1181 1184 1187 1190 1193 1196 1199 1202 1205 1208 1211 1214 1217 1220 1223 1226 1229 1232 1235 1238 1241 1244 1247 1250 1253 1256 1259 1262 1265 1268 1271 1274 1277 1280 1283 1286 1289 1292 1295 1298 1301 1304 1307 1310 1313 1316 1319 1322 1325 1328 1331 1334 1337 1340 1343 1346 1349 1352 1355 1358 1361 1364 1367 1370 1373 1376 1379 1382 1385 1388 1391 1394 1397 1400 1403 1406 1409 1412 1415 1418 1421 1424 1427 1430 1433 1436 1439 1442 1445 1448 1451 1454 1457 1460
        </DataArray>
        <DataArray type="Int32" Name="types" FORMAT="ascii">
 10 10 10 10 10 10 10 10 10 10 10 10 10 10 10 10 10 10 10 10 10 10 10 10 10 10 10 10 10 10 10 10 10 10 10 10 10 10 10 10 10 10 10 10 10 10 10 10 10 10 10 10 10 10 10 10 10 10 10 10 10 10 10 10 10 10 10 10 10 10 10 10 10 10 10 10 10 10 10 10 10 10 10 10 10 10 10 10 10 10 10 10 10 10 10 10 10 10 10 10 10 10 10 10 10 10 10 10 10 10 10 10 10 10 10 10 10 10 10 10 10 10 10 10 10 10 10 10 10 10 10 10 10 10 10 10 10 10 10 10 10 10 10 10 10 10 10 10 10 10 10 10 10 10 10 10 10 10 10 10 10 10 10 10 10 10 10 10 10 10 10 10 10 10 10 10 10 10 10 10 10 10 10 10 10 10 10 10 10 10 10 10 10 10 10 10 10 10 10 10 10 10 10 10 10 10 10 10 10 10 10 10 5 5 5 5 5 5 5 5 5 5 5 5 5 5 5 5 5 5 5 5 5 5 5 5 5 5 5 5 5 5 5 5 5 5 5 5 5 5 5 5 5 5 5 5 5 5 5 5 5 5 5 5 5 5 5 5 5 5 5 5 5 5 5 5 5 5 5 5 5 5 5 5 5 5 5 5 5 5 5 5 5 5 5 5 5 5 5 5 5 5 5 5 5 5 5 5 5 5 5 5 5 5 5 5 5 5 5 5 5 5 5 5 5 5 5 5 5 5 5 5 5 5 5 5 5 5 5 5 5 5 5 5 5 5 5 5 5 5 5 5 5 5 5 5 5 5 5 5 5 5 5 5 5 5 5 5 5 5 5 5 5 5 5 5 5 5 5 5 5 5 5 5 5 5 5 5 5 5 5 5 5 5 5 5 5 5 5 5 5 5 5 5 5 5 5 5 5 5 5 5 5 5 5 5
        </DataArray>
      </Cells>
    </Piece>
  </UnstructuredGrid>
</VTKFile>
