<?xml version="1.0"?>
<VTKFile type="UnstructuredGrid" version="0.1" byte_order="LittleEndian" header_type="UInt32" compressor="vtkZLibDataCompressor">
  <UnstructuredGrid>
    <Piece NumberOfPoints="104" NumberOfCells="416">
      <PointData Scalars="sensitivity">
        <DataArray type="Float64" Name="sensitivity" format="ascii" RangeMin="-9.6070738e-005" RangeMax="1085214.2356">
          1.3820897516e-315 428851.10128 629483.61984 578071.08354 368041.65352 338086.88161
          533693.89251 279144.05773 435285.24526 351068.59214 201458.27277 359304.5737
          598216.63774 327194.2605 235934.05681 168270.74873 284919.33921 241312.33304
          409005.80793 530635.7741 784327.5418 905805.28315 757290.1457 399120.3858
          214147.46617 370494.10398 268764.92019 284100.35488 310363.97686 773738.41323
          906032.33015 905490.17632 621280.72287 917734.7328 553662.37001 327780.76266
          245409.74168 300722.25482 404085.42024 624455.66083 1085214.2356 514618.68536
          765975.4793 665321.5489 649153.74243 678163.36452 693992.28625 27072.217188
          40781.006638 78752.562284 32051.385919 62052.455309 134390.26009 304203.70972
          783142.44351 805637.18756 379144.80175 171608.3827 56648.099281 37167.943708
          66122.299687 54490.921313 39035.237565 790175.14647 443174.88204 209907.01422
          90946.291286 132368.72718 264271.90389 439049.84516 693133.15624 436619.02299
          504988.59815 681703.46341 455182.90453 748112.72799 160317.81076 235501.53798
          484401.17332 401654.99836 218243.98549 325679.23262 291206.09418 248076.97338
          673545.35701 515705.45089 262838.59344 328064.24787 343025.51892 353345.18526
          284004.79606 100129.32446 80634.355767 190987.50512 177589.81368 113140.17779
          104428.23884 386983.56832 85326.461448 298109.87288 80859.297577 97912.271821
          327833.689 125915.59001 161536.54231 5.143216e-007 -1.0006577e-006 -1.6911179e-006
          -5.5736394e-007 -1.1814987e-006 1.7959856e-006 -1.371588e-006 -2.0757782e-006 4.1649611e-006
          -2.4981974e-006 -2.7068501e-006 6.6890364e-006 -4.4836612e-006 -1.9751987e-006 9.1641658e-006
          -1.4500941e-005 -1.4346763e-005 1.2199835e-005 -4.064818e-006 -1.4168039e-005 2.9603535e-006
          5.6738006e-006 -1.4186155e-005 -5.387035e-006 1.6194005e-005 -1.4516001e-005 -1.4853335e-005
          1.1834914e-005 -7.1997062e-006 -1.4350255e-005 -1.1112299e-005 -7.2321325e-006 1.1884301e-005
          -2.2078134e-005 -8.8493604e-005 1.3545371e-005 -6.6579555e-006 -8.8398232e-005 5.0909089e-006
          8.3518197e-006 -8.8353934e-005 -3.3108068e-006 2.3592051e-005 -8.8466699e-005 -1.1732927e-005
          2.3396821e-005 -7.2253563e-005 -1.2251341e-005 2.2708242e-005 -5.6437074e-005 -1.2744993e-005
          2.1345308e-005 -4.1332071e-005 -1.3230043e-005 1.9235036e-005 -2.7256478e-005 -1.3851724e-005
          -1.7673618e-005 -2.7197511e-005 1.2168035e-005 -1.9699742e-005 -4.1359324e-005 1.2481053e-005
          -2.1037396e-005 -5.6467633e-005 1.2811423e-005 -2.1843337e-005 -7.2260391e-005 1.3169365e-005
          -2.1750774e-005 -9.6070738e-005 1.3539234e-005 -6.3794485e-006 -9.5967903e-005 5.0977874e-006
          8.7806955e-006 -9.5966899e-005 -3.3032086e-006 2.4183688e-005 -9.60579e-005 -1.1744769e-005
          1.8711346e-005 -2.6386882e-005 -1.4148268e-005 2.0856916e-005 -4.1465684e-005 -1.3310445e-005
          2.264154e-005 -5.8659991e-005 -1.2777536e-005 2.3727921e-005 -7.7053492e-005 -1.2303306e-005
          -2.1323875e-005 -7.7016079e-005 1.3033098e-005 -2.0289327e-005 -5.8647518e-005 1.2565001e-005
          -1.8489342e-005 -4.1455745e-005 1.208261e-005 -1.6319107e-005 -2.6207938e-005 1.1792289e-005
          -1.1320378e-006 3.9069396e-006
        </DataArray>
      </PointData>
      <CellData>
      </CellData>
      <Points>
        <DataArray type="Float64" Name="Points" NumberOfComponents="3" format="ascii" RangeMin="2.4723168007e-005" RangeMax="122.47448714">
          -5.8909455e-006 1.217951e-005 50.000013 -1.8016392e-006 16.666712 50.000004
          1.2378839e-006 33.333312 49.999993 5.7411156e-006 50.000012 49.999984
          9.2830159e-006 50.000004 33.333283 1.4819509e-005 49.999995 16.666683
          1.7720453e-005 49.999986 -1.6828071e-005 6.8472448e-006 33.333286 -6.8848056e-006
          -4.6909024e-006 16.666686 3.6332545e-006 -1.5471091e-005 -1.3854515e-005 1.3413903e-005
          -1.315646e-005 -4.9655666e-006 16.666714 -8.5951603e-006 3.7255897e-006 33.333314
          100 4.4243401e-030 50 100 16.6667 50
          100 33.3333 50 100 50 50
          80 50 49.999998 60.000001 50.000001 49.999995
          40.000002 50.000003 49.999991 20.000004 50.000006 49.999987
          19.999995 6.1943347e-006 50.00001 39.999997 2.6950768e-006 50.000008
          59.999999 6.8147548e-007 50.000005 80 1.1610309e-007 50.000002
          100 -1.8776089e-034 35 100 16.6667 35
          100 33.3333 35 100 50 35
          14.999993 -2.2023638e-007 35.000011 14.999997 16.6667 35.000003
          15.000003 33.3333 34.999995 15.000008 50 34.999986
          32.000005 49.999998 34.99999 49.000003 49.999997 34.999993
          66.000001 49.999998 34.999996 83.000001 49.999999 34.999998
          82.999999 -1.1814987e-006 35.000002 65.999999 -2.0757782e-006 35.000004
          48.999998 -2.7068501e-006 35.000007 31.999996 -1.9751987e-006 35.000009
          14.999985 -1.4346763e-005 15.000012 14.999996 16.666686 15.000003
          15.000006 33.333286 14.999995 15.000016 49.999985 14.999985
          15.000012 49.999993 24.999986 14.999989 -7.2321325e-006 25.000012
          99.999978 -8.8493604e-005 15.000014 99.999993 16.666612 15.000005
          100.00001 33.333212 14.999997 100.00002 49.999912 14.999988
          83.000023 49.999928 14.999988 66.000023 49.999944 14.999987
          49.000021 49.999959 14.999987 32.000019 49.999973 14.999986
          31.999982 -2.7197511e-005 15.000012 48.99998 -4.1359324e-005 15.000012
          65.999979 -5.6467633e-005 15.000013 82.999978 -7.2260391e-005 15.000013
          99.999978 -9.6070738e-005 1.3539234e-005 99.999994 16.666604 5.0977874e-006
          100.00001 33.333204 -3.3032086e-006 100.00002 49.999904 -1.1744769e-005
          20.000019 49.999974 -1.4148268e-005 40.000021 49.999959 -1.3310445e-005
          60.000023 49.999941 -1.2777536e-005 80.000024 49.999923 -1.2303306e-005
          79.999979 -7.7016079e-005 1.3033098e-005 59.99998 -5.8647518e-005 1.2565001e-005
          39.999982 -4.1455745e-005 1.208261e-005 19.999984 -2.6207938e-005 1.1792289e-005
          -1.1320378e-006 20.887604 33.386901 4.5926546e-006 36.931604 32.884391
          2.6318708e-006 29.112395 16.613096 -5.7042266e-006 13.068395 17.115606
          16.7103 25.342607 49.999999 83.2897 24.6574 50
          65.7304 31.8996 49.999999 31.311201 35.445004 49.999995
          34.269599 18.100403 50.000002 68.6888 14.555 50.000002
          47.7263 33.663401 49.999997 52.2737 16.336601 50.000002
          85.5633 25.424399 35 34.365299 17.294498 35.000002
          39.829002 33.614897 34.999997 72.705901 35.478598 34.999999
          69.816699 18.488398 35.000001 52.685099 17.247797 35.000002
          57.577601 34.029697 34.999998 29.436701 25.424375 14.999999
          80.634694 17.29443 15.000004 75.171008 33.614835 14.999996
          42.294109 35.478565 14.999994 45.183296 18.488362 15.000003
          62.314894 17.247747 15.000004 57.422408 34.029651 14.999995
          16.710301 24.657376 -9.556823e-007 83.289701 25.34252 3.2114256e-007
          34.269607 31.899563 -4.1766301e-006 68.68881 35.444934 -5.1634781e-006
          65.730395 18.100336 3.586441e-006 31.311193 14.554966 4.4440774e-006
          52.273708 33.663348 -4.6372258e-006 47.726294 16.336552 4.0214262e-006
        </DataArray>
      </Points>
      <Cells>
        <DataArray type="Int64" Name="connectivity" format="ascii" RangeMin="0" RangeMax="103">
          85 75 82 86 33 17
          80 18 29 72 30 70
          26 15 35 27 33 88
          80 17 18 33 84 80
          87 37 79 86 99 94
          91 100 45 11 73 29
          41 30 72 42 94 95
          93 102 56 66 90 100
          97 50 65 60 73 72
          29 70 44 30 42 71
          33 88 84 80 40 41
          69 54 83 21 20 78
          92 102 98 93 99 94
          100 102 29 1 70 74
          14 13 82 75 101 68
          54 93 94 102 93 103
          44 4 71 5 20 21
          83 39 102 103 98 93
          1 28 29 11 89 92
          98 93 50 97 48 60
          100 94 91 90 77 18
          84 80 82 36 13 25
          48 90 59 97 75 35
          16 85 40 8 41 73
          79 36 75 86 68 55
          54 93 100 94 103 102
          23 79 36 75 44 42
          5 71 26 15 14 35
          50 51 91 65 99 94
          102 95 55 94 103 67
          51 99 91 65 91 50
          65 97 7 62 42 43
          37 22 38 87 40 8
          69 41 76 87 86 88
          45 40 41 73 101 68
          69 54 96 62 98 42
          14 35 82 26 88 85
          86 76 89 41 96 42
          59 48 97 60 20 74
          83 78 31 3 71 4
          89 101 54 93 36 79
          37 86 40 45 10 73
          29 1 74 20 39 83
          38 21 38 81 83 87
          58 47 46 57 58 47
          57 59 30 19 31 32
          30 2 71 31 1 28
          20 29 94 56 90 100
          66 57 59 58 14 25
          26 82 80 83 84 77
          101 89 98 93 66 56
          90 57 28 39 20 29
          80 83 77 78 33 88
          17 34 29 72 73 41
          62 42 43 53 83 77
          30 84 77 83 30 74
          2 19 3 31 102 95
          93 92 19 2 30 31
          89 96 98 42 63 53
          92 98 99 100 91 97
          94 56 100 67 41 72
          96 42 2 30 70 74
          57 66 59 90 30 72
          42 71 11 1 70 29
          38 81 87 22 1 28
          11 0 1 28 0 20
          83 29 30 74 101 89
          41 96 7 62 96 42
          72 7 96 42 13 36
          82 75 75 35 85 82
          7 6 62 43 75 35
          82 14 55 67 103 68
          57 90 59 47 68 101
          103 93 55 94 93 103
          42 62 98 53 99 95
          102 64 44 30 71 31
          76 87 88 80 41 30
          29 72 84 77 30 32
          42 72 5 71 18 77
          32 19 52 95 102 92
          89 42 98 53 94 55
          56 67 53 89 92 98
          90 66 59 97 34 88
          76 85 77 19 74 30
          19 2 74 30 40 8
          73 9 17 88 76 34
          33 18 84 32 79 37
          87 22 75 35 14 16
          35 34 16 85 79 75
          76 86 100 66 90 97
          73 72 8 41 83 74
          20 29 39 83 20 29
          99 51 95 64 95 52
          102 64 95 51 52 64
          81 83 87 80 76 87
          80 81 83 77 78 74
          63 52 64 102 56 66
          100 67 8 72 96 41
          7 72 96 8 50 61
          65 60 14 25 82 13
          87 79 22 81 90 91
          97 48 41 8 69 96
          87 79 76 86 81 83
          80 78 7 42 5 43
          1 2 70 74 75 85
          76 86 75 36 82 86
          72 30 70 71 42 44
          5 43 77 19 30 32
          6 7 5 43 22 23
          79 37 91 50 97 48
          101 41 69 96 28 11
          45 29 79 23 36 37
          102 63 92 98 40 73
          10 9 99 91 65 97
          63 52 92 53 89 101
          41 54 41 101 69 54
          59 90 48 47 30 2
          70 71 13 23 36 75
          52 63 92 102 77 18
          32 84 99 94 95 91
          2 3 71 31 29 45
          41 73 30 29 70 74
          24 13 12 36 23 12
          13 36 44 31 71 4
          84 88 87 80 38 81
          22 21 87 79 81 76
          62 63 98 53 11 29
          70 73 24 13 36 25
          67 94 103 100 80 83
          87 84 45 11 10 73
          48 50 60 49 99 51
          91 95 7 72 5 42
          101 89 96 98 38 81
          21 83 55 68 103 93
          17 34 76 16 50 61
          60 49 100 90 91 97
          34 85 76 16 88 17
          76 80 75 85 16 76
          35 14 16 15 81 83
          78 21 103 101 98 93
          99 51 64 65 40 8
          9 69 0 1 11 1
          2 70 4 71 3 4
          5 71 5 6 7 7
          8 72 10 73 9 10
          11 73 2 3 71 5
          7 72 8 9 73 11
          1 70 70 2 71 71
          5 72 72 8 73 70
          71 72 72 73 70 73
          11 70 1 0 20 2
          1 74 3 2 19 12
          13 23 13 14 75 14
          15 16 16 17 76 18
          19 77 20 21 78 22
          23 79 19 2 74 77
          19 74 23 13 75 14
          16 75 16 76 75 17
          18 80 17 80 76 21
          22 81 1 20 74 78
          21 81 80 18 77 81
          22 79 78 81 80 77
          74 78 75 76 79 80
          77 78 78 74 20 81
          79 76 76 80 81 23
          75 79 13 12 24 13
          25 14 15 14 26 27
          15 26 26 14 25 24
          25 13 25 24 36 26
          25 82 27 26 35 28
          29 39 29 30 83 30
          31 32 39 29 83 32
          33 84 34 35 85 36
          37 86 38 39 83 35
          26 82 86 37 87 37
          38 87 32 84 30 33
          34 88 38 83 87 25
          36 82 33 88 84 88
          34 85 86 87 88 84
          88 87 82 36 86 82
          86 85 85 86 88 85
          35 82 83 30 84 84
          87 83 28 45 29 30
          29 41 42 44 30 41
          42 30 40 41 45 42
          43 44 41 29 45 31
          30 44 41 40 54 42
          41 89 43 42 53 46
          47 57 47 48 90 57
          47 90 48 49 50 50
          51 91 52 53 92 54
          55 93 56 57 90 53
          42 89 93 55 94 55
          56 94 51 52 95 50
          91 48 56 90 94 51
          95 91 41 54 89 95
          52 92 93 94 95 95
          92 93 91 95 94 93
          92 89 53 89 92 89
          54 93 90 48 91 90
          91 94 47 46 58 47
          59 48 49 48 60 61
          49 60 60 48 59 58
          59 47 7 6 62 8
          7 96 9 8 69 59
          58 66 60 59 97 61
          60 65 62 63 98 64
          65 99 66 67 100 68
          69 101 69 8 96 99
          65 97 59 66 97 65
          60 97 62 98 96 63
          64 102 67 68 103 7
          62 96 100 67 103 103
          68 101 102 64 99 63
          102 98 100 103 102 97
          66 100 99 97 100 100
          102 99 96 98 101 98
          102 103 103 101 98 96
          101 69 4 3 31 31
          44 4 6 5 43 3
          19 31 16 15 35 17
          16 34 18 17 33 19
          18 32 15 27 35 32
          31 19 33 32 18 34
          33 17 62 6 43 35
          34 16 43 53 62 50
          49 61 51 50 65 52
          51 64 53 52 63 51
          65 64 63 62 53 61
          65 50 64 63 52 43
          5 44 5 4 44 0
          11 28 10 9 40 20
          0 28 40 45 10 12
          23 36 24 12 36 21
          20 39 22 21 38 23
          22 37 21 39 38 28
          39 20 37 36 23 38
          37 22 9 69 40 54
          40 69 46 57 58 55
          54 68 56 55 67 57
          56 66 66 58 57 67
          66 56 68 67 55 69
          68 54 45 28 11 11
          10 45
        </DataArray>
        <DataArray type="Int64" Name="offsets" format="ascii" RangeMin="4" RangeMax="1460">
          4 8 12 16 20 24
          28 32 36 40 44 48
          52 56 60 64 68 72
          76 80 84 88 92 96
          100 104 108 112 116 120
          124 128 132 136 140 144
          148 152 156 160 164 168
          172 176 180 184 188 192
          196 200 204 208 212 216
          220 224 228 232 236 240
          244 248 252 256 260 264
          268 272 276 280 284 288
          292 296 300 304 308 312
          316 320 324 328 332 336
          340 344 348 352 356 360
          364 368 372 376 380 384
          388 392 396 400 404 408
          412 416 420 424 428 432
          436 440 444 448 452 456
          460 464 468 472 476 480
          484 488 492 496 500 504
          508 512 516 520 524 528
          532 536 540 544 548 552
          556 560 564 568 572 576
          580 584 588 592 596 600
          604 608 612 616 620 624
          628 632 636 640 644 648
          652 656 660 664 668 672
          676 680 684 688 692 696
          700 704 708 712 716 720
          724 728 732 736 740 744
          748 752 756 760 764 768
          772 776 780 784 788 792
          796 800 804 808 812 816
          820 824 828 832 836 840
          844 848 851 854 857 860
          863 866 869 872 875 878
          881 884 887 890 893 896
          899 902 905 908 911 914
          917 920 923 926 929 932
          935 938 941 944 947 950
          953 956 959 962 965 968
          971 974 977 980 983 986
          989 992 995 998 1001 1004
          1007 1010 1013 1016 1019 1022
          1025 1028 1031 1034 1037 1040
          1043 1046 1049 1052 1055 1058
          1061 1064 1067 1070 1073 1076
          1079 1082 1085 1088 1091 1094
          1097 1100 1103 1106 1109 1112
          1115 1118 1121 1124 1127 1130
          1133 1136 1139 1142 1145 1148
          1151 1154 1157 1160 1163 1166
          1169 1172 1175 1178 1181 1184
          1187 1190 1193 1196 1199 1202
          1205 1208 1211 1214 1217 1220
          1223 1226 1229 1232 1235 1238
          1241 1244 1247 1250 1253 1256
          1259 1262 1265 1268 1271 1274
          1277 1280 1283 1286 1289 1292
          1295 1298 1301 1304 1307 1310
          1313 1316 1319 1322 1325 1328
          1331 1334 1337 1340 1343 1346
          1349 1352 1355 1358 1361 1364
          1367 1370 1373 1376 1379 1382
          1385 1388 1391 1394 1397 1400
          1403 1406 1409 1412 1415 1418
          1421 1424 1427 1430 1433 1436
          1439 1442 1445 1448 1451 1454
          1457 1460
        </DataArray>
        <DataArray type="UInt8" Name="types" format="ascii" RangeMin="5" RangeMax="10">
          10 10 10 10 10 10
          10 10 10 10 10 10
          10 10 10 10 10 10
          10 10 10 10 10 10
          10 10 10 10 10 10
          10 10 10 10 10 10
          10 10 10 10 10 10
          10 10 10 10 10 10
          10 10 10 10 10 10
          10 10 10 10 10 10
          10 10 10 10 10 10
          10 10 10 10 10 10
          10 10 10 10 10 10
          10 10 10 10 10 10
          10 10 10 10 10 10
          10 10 10 10 10 10
          10 10 10 10 10 10
          10 10 10 10 10 10
          10 10 10 10 10 10
          10 10 10 10 10 10
          10 10 10 10 10 10
          10 10 10 10 10 10
          10 10 10 10 10 10
          10 10 10 10 10 10
          10 10 10 10 10 10
          10 10 10 10 10 10
          10 10 10 10 10 10
          10 10 10 10 10 10
          10 10 10 10 10 10
          10 10 10 10 10 10
          10 10 10 10 10 10
          10 10 10 10 10 10
          10 10 10 10 10 10
          10 10 10 10 10 10
          10 10 10 10 10 10
          10 10 5 5 5 5
          5 5 5 5 5 5
          5 5 5 5 5 5
          5 5 5 5 5 5
          5 5 5 5 5 5
          5 5 5 5 5 5
          5 5 5 5 5 5
          5 5 5 5 5 5
          5 5 5 5 5 5
          5 5 5 5 5 5
          5 5 5 5 5 5
          5 5 5 5 5 5
          5 5 5 5 5 5
          5 5 5 5 5 5
          5 5 5 5 5 5
          5 5 5 5 5 5
          5 5 5 5 5 5
          5 5 5 5 5 5
          5 5 5 5 5 5
          5 5 5 5 5 5
          5 5 5 5 5 5
          5 5 5 5 5 5
          5 5 5 5 5 5
          5 5 5 5 5 5
          5 5 5 5 5 5
          5 5 5 5 5 5
          5 5 5 5 5 5
          5 5 5 5 5 5
          5 5 5 5 5 5
          5 5 5 5 5 5
          5 5 5 5 5 5
          5 5 5 5 5 5
          5 5 5 5 5 5
          5 5 5 5 5 5
          5 5
        </DataArray>
      </Cells>
    </Piece>
  </UnstructuredGrid>
</VTKFile>
