<?xml version="1.0"?>
<VTKFile type="UnstructuredGrid" version="0.1" byte_order="LittleEndian" header_type="UInt32" compressor="vtkZLibDataCompressor">
  <UnstructuredGrid>
    <Piece NumberOfPoints="104" NumberOfCells="0">
      <PointData Scalars="sensitivity">
        <DataArray type="Float64" Name="sensitivity" format="ascii" RangeMin="-9.6070738e-005" RangeMax="18109803.526">
          1.3706387329e-315 857702.20256 5035868.9587 4624568.6684 1104124.9606 1014260.6448
          3735857.2476 558288.11547 3482281.9621 2808548.7371 604374.8183 1077913.7211
          4187516.4642 654388.521 1887472.4545 1346165.9899 854758.01762 1689186.3313
          2454034.8476 3183814.6446 5490292.7926 8152247.5484 4543740.8742 2394722.3148
          1070737.3309 740988.20797 1075059.6807 1136401.4195 310363.97686 4642430.4794
          16308581.943 18109803.526 4970245.783 5506408.3968 3321974.2201 1966684.5759
          2208687.6751 3307944.8031 2424512.5214 3746733.965 4340856.9422 4116949.4829
          13021583.148 11975787.88 3894922.4546 4068980.1871 4163953.7175 27072.217188
          163124.02655 551267.93599 64102.771838 496419.64247 806341.56056 1825222.2583
          5481997.1045 5639460.3129 2274868.8105 1029650.2962 339888.59568 111503.83112
          528978.3975 326945.52788 78070.47513 5531226.0253 2659049.2922 1259442.0853
          636624.039 926581.09029 1585631.4233 2634299.071 4851932.0937 4366190.2299
          6059863.1779 9543848.4877 5462194.8543 8977352.7358 2244449.3506 3297021.5317
          5328412.9065 2409929.9902 2400683.8404 4559509.2566 2912060.9418 2480769.7338
          12123816.426 5157054.5089 2365547.341 3280642.4787 4802357.2649 3533451.8526
          2840047.9606 1201551.8935 967612.2692 1718887.546 2486257.3915 1583962.489
          1044282.3884 4643802.8199 1023917.5374 4173538.2203 889452.27335 1174947.2618
          3606170.579 1762818.2601 1615365.4231 5.143216e-007 -1.0006577e-006 -1.6911179e-006
          -5.5736394e-007 -1.1814987e-006 1.7959856e-006 -1.371588e-006 -2.0757782e-006 4.1649611e-006
          -2.4981974e-006 -2.7068501e-006 6.6890364e-006 -4.4836612e-006 -1.9751987e-006 9.1641658e-006
          -1.4500941e-005 -1.4346763e-005 1.2199835e-005 -4.064818e-006 -1.4168039e-005 2.9603535e-006
          5.6738006e-006 -1.4186155e-005 -5.387035e-006 1.6194005e-005 -1.4516001e-005 -1.4853335e-005
          1.1834914e-005 -7.1997062e-006 -1.4350255e-005 -1.1112299e-005 -7.2321325e-006 1.1884301e-005
          -2.2078134e-005 -8.8493604e-005 1.3545371e-005 -6.6579555e-006 -8.8398232e-005 5.0909089e-006
          8.3518197e-006 -8.8353934e-005 -3.3108068e-006 2.3592051e-005 -8.8466699e-005 -1.1732927e-005
          2.3396821e-005 -7.2253563e-005 -1.2251341e-005 2.2708242e-005 -5.6437074e-005 -1.2744993e-005
          2.1345308e-005 -4.1332071e-005 -1.3230043e-005 1.9235036e-005 -2.7256478e-005 -1.3851724e-005
          -1.7673618e-005 -2.7197511e-005 1.2168035e-005 -1.9699742e-005 -4.1359324e-005 1.2481053e-005
          -2.1037396e-005 -5.6467633e-005 1.2811423e-005 -2.1843337e-005 -7.2260391e-005 1.3169365e-005
          -2.1750774e-005 -9.6070738e-005 1.3539234e-005 -6.3794485e-006 -9.5967903e-005 5.0977874e-006
          8.7806955e-006 -9.5966899e-005 -3.3032086e-006 2.4183688e-005 -9.60579e-005 -1.1744769e-005
          1.8711346e-005 -2.6386882e-005 -1.4148268e-005 2.0856916e-005 -4.1465684e-005 -1.3310445e-005
          2.264154e-005 -5.8659991e-005 -1.2777536e-005 2.3727921e-005 -7.7053492e-005 -1.2303306e-005
          -2.1323875e-005 -7.7016079e-005 1.3033098e-005 -2.0289327e-005 -5.8647518e-005 1.2565001e-005
          -1.8489342e-005 -4.1455745e-005 1.208261e-005 -1.6319107e-005 -2.6207938e-005 1.1792289e-005
          -1.1320378e-006 3.9069396e-006
        </DataArray>
      </PointData>
      <CellData>
      </CellData>
      <Points>
        <DataArray type="Float64" Name="Points" NumberOfComponents="3" format="ascii" RangeMin="2.4723168007e-005" RangeMax="122.47448714">
          -5.8909455e-006 1.217951e-005 50.000013 -1.8016392e-006 16.666712 50.000004
          1.2378839e-006 33.333312 49.999993 5.7411156e-006 50.000012 49.999984
          9.2830159e-006 50.000004 33.333283 1.4819509e-005 49.999995 16.666683
          1.7720453e-005 49.999986 -1.6828071e-005 6.8472448e-006 33.333286 -6.8848056e-006
          -4.6909024e-006 16.666686 3.6332545e-006 -1.5471091e-005 -1.3854515e-005 1.3413903e-005
          -1.315646e-005 -4.9655666e-006 16.666714 -8.5951603e-006 3.7255897e-006 33.333314
          100 4.4243401e-030 50 100 16.6667 50
          100 33.3333 50 100 50 50
          80 50 49.999998 60.000001 50.000001 49.999995
          40.000002 50.000003 49.999991 20.000004 50.000006 49.999987
          19.999995 6.1943347e-006 50.00001 39.999997 2.6950768e-006 50.000008
          59.999999 6.8147548e-007 50.000005 80 1.1610309e-007 50.000002
          100 -1.8776089e-034 35 100 16.6667 35
          100 33.3333 35 100 50 35
          14.999993 -2.2023638e-007 35.000011 14.999997 16.6667 35.000003
          15.000003 33.3333 34.999995 15.000008 50 34.999986
          32.000005 49.999998 34.99999 49.000003 49.999997 34.999993
          66.000001 49.999998 34.999996 83.000001 49.999999 34.999998
          82.999999 -1.1814987e-006 35.000002 65.999999 -2.0757782e-006 35.000004
          48.999998 -2.7068501e-006 35.000007 31.999996 -1.9751987e-006 35.000009
          14.999985 -1.4346763e-005 15.000012 14.999996 16.666686 15.000003
          15.000006 33.333286 14.999995 15.000016 49.999985 14.999985
          15.000012 49.999993 24.999986 14.999989 -7.2321325e-006 25.000012
          99.999978 -8.8493604e-005 15.000014 99.999993 16.666612 15.000005
          100.00001 33.333212 14.999997 100.00002 49.999912 14.999988
          83.000023 49.999928 14.999988 66.000023 49.999944 14.999987
          49.000021 49.999959 14.999987 32.000019 49.999973 14.999986
          31.999982 -2.7197511e-005 15.000012 48.99998 -4.1359324e-005 15.000012
          65.999979 -5.6467633e-005 15.000013 82.999978 -7.2260391e-005 15.000013
          99.999978 -9.6070738e-005 1.3539234e-005 99.999994 16.666604 5.0977874e-006
          100.00001 33.333204 -3.3032086e-006 100.00002 49.999904 -1.1744769e-005
          20.000019 49.999974 -1.4148268e-005 40.000021 49.999959 -1.3310445e-005
          60.000023 49.999941 -1.2777536e-005 80.000024 49.999923 -1.2303306e-005
          79.999979 -7.7016079e-005 1.3033098e-005 59.99998 -5.8647518e-005 1.2565001e-005
          39.999982 -4.1455745e-005 1.208261e-005 19.999984 -2.6207938e-005 1.1792289e-005
          -1.1320378e-006 20.887604 33.386901 4.5926546e-006 36.931604 32.884391
          2.6318708e-006 29.112395 16.613096 -5.7042266e-006 13.068395 17.115606
          16.7103 25.342607 49.999999 83.2897 24.6574 50
          65.7304 31.8996 49.999999 31.311201 35.445004 49.999995
          34.269599 18.100403 50.000002 68.6888 14.555 50.000002
          47.7263 33.663401 49.999997 52.2737 16.336601 50.000002
          85.5633 25.424399 35 34.365299 17.294498 35.000002
          39.829002 33.614897 34.999997 72.705901 35.478598 34.999999
          69.816699 18.488398 35.000001 52.685099 17.247797 35.000002
          57.577601 34.029697 34.999998 29.436701 25.424375 14.999999
          80.634694 17.29443 15.000004 75.171008 33.614835 14.999996
          42.294109 35.478565 14.999994 45.183296 18.488362 15.000003
          62.314894 17.247747 15.000004 57.422408 34.029651 14.999995
          16.710301 24.657376 -9.556823e-007 83.289701 25.34252 3.2114256e-007
          34.269607 31.899563 -4.1766301e-006 68.68881 35.444934 -5.1634781e-006
          65.730395 18.100336 3.586441e-006 31.311193 14.554966 4.4440774e-006
          52.273708 33.663348 -4.6372258e-006 47.726294 16.336552 4.0214262e-006
        </DataArray>
      </Points>
      <Cells>
        <DataArray type="Int64" Name="connectivity" format="ascii" RangeMin="1e+299" RangeMax="-1e+299">
        </DataArray>
        <DataArray type="Int64" Name="offsets" format="ascii" RangeMin="1e+299" RangeMax="-1e+299">
        </DataArray>
        <DataArray type="UInt8" Name="types" format="ascii" RangeMin="1e+299" RangeMax="-1e+299">
        </DataArray>
      </Cells>
    </Piece>
  </UnstructuredGrid>
</VTKFile>
