<?xml version="1.0"?>
<VTKFile type="UnstructuredGrid" version="0.1" byte_order="LittleEndian">
  <UnstructuredGrid>
    <Piece NumberOfPoints="327" NumberOfCells="327">
      <PointData>
        <DataArray type="Float32" Name="displacement" NumberOfComponents="3" format="ascii">
  3.065E-005  2.570E-005  5.745E-007  3.054E-005  2.552E-005 -7.412E-007  9.977E-006  6.065E-005 -1.176E-006 -2.156E-005  2.620E-005  1.596E-006  3.379E-005  6.165E-005  3.826E-006  1.808E-005  2.814E-005  4.850E-007 -9.795E-006  2.672E-005  7.907E-007  1.727E-029 -1.521E-035 -7.942E-037  3.259E-005  2.566E-005 -2.691E-006 -4.180E-005  6.435E-005  1.245E-006 -3.929E-005  2.794E-005  1.139E-006 -2.507E-005  1.139E-004  2.486E-007 -4.472E-005  6.213E-005  2.666E-006 -2.123E-005  2.378E-005 -3.092E-006 -9.362E-006  2.608E-005 -1.082E-006  3.737E-006  2.691E-005  2.801E-007 -2.298E-005  1.135E-004  1.143E-006  1.167E-005  1.115E-004  9.798E-007  3.328E-005  6.118E-005 -4.955E-006 -1.773E-005  6.008E-005 -1.809E-006  1.935E-005  2.339E-005 -3.169E-006  6.701E-005  6.404E-005 -8.075E-006  9.791E-006  6.055E-005 -1.385E-006  9.296E-005  1.162E-004  7.185E-006 -1.770E-005  6.181E-005 -1.248E-006 -3.850E-005  2.736E-005 -2.596E-006 -1.096E-004  1.197E-004 -1.648E-006  3.598E-006  2.295E-005  3.580E-007  1.331E-005  1.137E-004 -6.141E-008  8.399E-006  6.464E-005  9.459E-008 -6.391E-005  1.136E-004 -5.662E-006 -9.060E-006  2.283E-005  1.181E-006 -2.453E-005  1.146E-004 -1.643E-006 -4.617E-005  6.074E-005  5.308E-006 -1.783E-005  6.035E-005 -4.270E-007  1.806E-005  2.460E-005  2.783E-006  9.303E-005  1.186E-004 -1.956E-006 -2.142E-005  2.342E-005  3.201E-006  3.596E-005  6.344E-005  2.048E-006 -7.298E-006  2.596E-005 -5.119E-007  4.966E-005  1.124E-004  4.061E-006 -3.928E-005  2.501E-005  5.872E-006  1.246E-005  1.116E-004 -1.678E-006  4.845E-005  1.158E-004  3.493E-007 -2.556E-005  1.109E-004  1.940E-006 -7.710E-005  6.553E-005 -7.838E-006 -2.408E-005  2.910E-005 -1.521E-006 -1.667E-005  6.164E-005  1.087E-006  3.484E-005  2.466E-005 -5.764E-006  6.272E-005  6.632E-005 -1.758E-006  3.680E-005  6.415E-005 -1.087E-006 -9.593E-006  2.778E-005 -3.018E-007 -1.095E-004  1.167E-004 -8.736E-006 -3.933E-005  2.660E-005 -5.064E-006  3.167E-006  2.582E-005  1.163E-007  9.295E-006  5.913E-005  8.113E-007  4.953E-005  1.146E-004 -3.172E-006 -7.606E-005  6.780E-005 -1.205E-006 -4.383E-005  6.284E-005 -4.912E-006  6.566E-005  6.440E-005  6.744E-006 -4.301E-005  6.473E-005 -8.743E-007 -7.612E-005  6.691E-005 -4.075E-006 -2.127E-005  2.781E-005  7.974E-007  1.895E-005  2.823E-005 -1.808E-006 -7.605E-005  6.588E-005  4.657E-006  5.085E-005  1.151E-004  2.312E-006  3.170E-005  2.454E-005  4.554E-006  1.493E-005  2.705E-005  1.109E-006  3.205E-005  6.266E-005 -2.805E-006 -6.329E-005  1.142E-004 -3.116E-006 -7.709E-005  6.850E-005  1.769E-006 -3.975E-005  2.715E-005  3.281E-006  8.589E-006  6.376E-005 -1.147E-007  1.449E-005  1.134E-004 -4.585E-007 -6.332E-005  1.128E-004  5.619E-006 -7.597E-005  6.541E-005  8.577E-006  3.373E-005  6.505E-005  6.021E-007  6.516E-005  6.704E-005  8.804E-007  3.039E-006  2.609E-005 -3.895E-007 -2.450E-005  1.147E-004 -6.750E-007  8.421E-006  6.219E-005  5.062E-007  1.240E-005  1.132E-004  5.044E-007 -1.004E-005  2.989E-005  3.599E-008 -6.333E-005  1.147E-004  3.594E-006  4.284E-006  2.234E-005 -6.936E-007 -6.193E-005  1.151E-004 -1.211E-006 -4.358E-005  6.180E-005 -2.586E-006  6.558E-005  6.538E-005  3.924E-006  5.178E-005  1.121E-004 -5.335E-006 -4.016E-005  2.753E-005 -7.932E-007 -2.207E-005  2.766E-005 -3.291E-007 -1.087E-004  1.193E-004  1.681E-006  9.443E-005  1.159E-004 -8.598E-006 -1.587E-005  5.988E-005  1.462E-006 -1.092E-004  1.164E-004  9.044E-006 -1.892E-005  6.044E-005  2.313E-007 -6.280E-005  1.159E-004  7.801E-007  3.161E-005  2.555E-005  2.224E-006  6.584E-005  6.541E-005 -4.659E-006  9.278E-005  1.181E-004 -4.986E-006  1.381E-051  1.204E-051  1.273E-051  1.241E-051  1.107E-051  1.041E-051  3.716E-006  2.653E-005  7.846E-009  9.239E-005  1.183E-004  3.999E-006  4.810E-005  1.144E-004 -1.246E-006  1.325E-005  1.135E-004 -8.963E-007  9.298E-005  1.186E-004  9.913E-007  1.494E-005  2.555E-005 -3.784E-007 -2.421E-005  1.119E-004 -2.398E-006 -1.085E-004  1.180E-004  5.340E-006 -1.094E-004  1.189E-004 -4.873E-006  1.486E-005  1.775E-004  3.967E-007  1.562E-004  3.335E-004  2.399E-006 -3.080E-005  1.766E-004 -2.470E-006 -1.805E-004  3.330E-004  5.488E-006  8.654E-005  3.332E-004 -1.066E-006 -1.605E-004  2.520E-004  6.823E-006  7.889E-005  2.491E-004 -4.055E-006 -4.260E-005  3.330E-004 -6.898E-007  8.706E-005  3.297E-004 -3.517E-006 -3.724E-005  2.480E-004 -2.231E-006 -9.718E-005  2.503E-004 -4.496E-006 -3.636E-005  2.480E-004  1.657E-006  1.752E-005  2.483E-004 -1.306E-006 -8.293E-005  1.772E-004 -5.180E-006  1.540E-005  1.782E-004 -1.577E-007 -2.984E-005  1.786E-004  9.722E-007 -9.515E-005  2.523E-004  2.503E-006  8.566E-005  3.317E-004 -2.248E-006  2.200E-005  3.325E-004 -3.417E-007  8.574E-005  3.321E-004  1.172E-006  1.557E-004  3.305E-004 -5.811E-006  6.304E-005  1.799E-004  4.107E-007  1.546E-005  1.783E-004 -1.068E-006  1.928E-005  2.492E-004 -1.266E-006  2.204E-005  3.324E-004 -4.734E-007  1.764E-005  1.752E-004 -1.209E-006  8.560E-005  3.303E-004  2.341E-006 -4.319E-005  3.301E-004 -1.953E-006  7.813E-005  2.491E-004  2.995E-006 -3.279E-005  1.787E-004  3.693E-007 -3.724E-005  2.496E-004 -1.817E-008  6.454E-005  1.764E-004  3.737E-006 -1.062E-004  3.346E-004  3.082E-007 -9.889E-005  2.519E-004 -2.916E-006 -3.796E-005  2.492E-004 -4.477E-007 -3.674E-005  2.493E-004  7.036E-007  1.187E-004  1.803E-004 -4.876E-006 -1.084E-004  3.307E-004 -4.088E-006  1.371E-004  2.524E-004 -6.784E-006 -9.738E-005  2.518E-004 -1.196E-006  1.966E-005  2.494E-004 -2.602E-007 -9.618E-005  2.499E-004  4.274E-006  6.422E-005  1.756E-004 -4.846E-006 -4.246E-005  3.327E-004 -2.186E-007  6.319E-005  1.797E-004 -1.466E-006  7.619E-005  2.506E-004 -1.308E-006  6.338E-005  1.792E-004  2.069E-006 -3.139E-005  1.753E-004  1.948E-006 -1.607E-004  2.547E-004  3.918E-006 -8.389E-005  1.799E-004 -3.248E-006  2.151E-005  3.313E-004 -1.018E-006 -1.369E-004  1.790E-004  8.407E-006 -8.230E-005  1.803E-004  6.910E-007 -4.342E-005  3.320E-004  1.139E-007  1.388E-004  2.539E-004  7.502E-007  1.187E-004  1.810E-004  6.068E-007  1.609E-005  1.751E-004  7.887E-007  7.592E-005  2.500E-004 -2.716E-006  1.568E-004  3.338E-004 -1.744E-006  8.651E-005  3.335E-004 -1.112E-008  1.182E-004  1.812E-004 -1.935E-006 -1.071E-004  3.313E-004  3.321E-006  6.375E-005  1.793E-004 -3.102E-006 -1.369E-004  1.806E-004  4.791E-006  2.183E-005  3.318E-004  2.884E-008  1.790E-005  2.482E-004  4.778E-007 -1.629E-004  2.546E-004  1.207E-006 -8.108E-005  1.758E-004  5.421E-006  1.383E-004  2.530E-004  3.132E-006 -1.079E-004  3.326E-004 -2.740E-006  7.684E-005  2.502E-004  3.686E-007  2.192E-005  3.295E-004 -1.379E-006  1.390E-004  2.530E-004 -4.476E-006  1.178E-004  1.816E-004  3.732E-006  1.197E-004  1.780E-004 -7.871E-006  1.561E-004  3.316E-004  4.451E-006 -1.809E-004  3.356E-004  5.701E-007 -3.100E-005  1.797E-004 -5.940E-007 -1.376E-004  1.823E-004  1.559E-006  1.178E-004  1.796E-004  6.421E-006  7.591E-005  2.496E-004  1.594E-006  1.562E-004  3.340E-004  5.286E-007 -1.607E-004  2.549E-004 -1.387E-006  1.603E-005  1.785E-004 -3.920E-007 -1.597E-004  2.542E-004 -4.263E-006 -1.604E-004  2.522E-004 -7.435E-006 -8.179E-005  1.803E-004 -1.124E-006  1.993E-005  2.485E-004  2.423E-007  1.981E-005  2.500E-004 -1.981E-007 -1.805E-004  3.346E-004 -3.914E-006 -1.804E-004  3.352E-004  3.006E-006 -4.215E-005  3.302E-004  1.038E-006  1.562E-004  3.337E-004 -3.676E-006 -1.080E-004  3.335E-004 -1.162E-006 -1.072E-004  3.337E-004  1.896E-006  1.383E-004  2.538E-004 -1.737E-006 -9.550E-005  2.523E-004  1.013E-006 -8.246E-005  1.787E-004  3.147E-006 -2.846E-005  1.783E-004 -1.678E-006 -4.488E-005  3.323E-004 -1.345E-006 -1.812E-004  3.351E-004 -1.497E-006 -3.928E-005  2.494E-004 -1.301E-006 -1.373E-004  1.818E-004 -4.797E-006  2.116E-005  3.296E-004  7.581E-009 -1.376E-004  1.824E-004 -1.722E-006 -1.806E-004  3.324E-004 -6.261E-006  1.385E-004  2.513E-004  5.497E-006 -1.368E-004  1.799E-004 -7.978E-006  1.846E-004  6.089E-004  4.386E-007  2.256E-005  4.185E-004 -1.317E-007 -4.641E-005  4.176E-004 -1.609E-006  1.015E-004  6.079E-004 -8.720E-007 -2.060E-004  5.122E-004  2.137E-006  1.775E-004  5.121E-004 -3.251E-006 -5.045E-005  6.069E-004 -9.540E-007  1.022E-004  6.071E-004 -1.427E-006 -2.129E-004  6.099E-004  1.162E-007 -1.240E-004  5.116E-004 -2.628E-006  2.282E-005  4.191E-004 -4.881E-007  1.781E-004  5.126E-004  9.569E-007 -4.614E-005  4.186E-004  2.179E-008 -1.246E-004  5.118E-004  2.718E-007 -1.264E-004  6.081E-004 -1.779E-007  9.308E-005  4.202E-004 -1.345E-007 -1.962E-004  4.218E-004  2.272E-007  2.529E-005  6.066E-004 -7.633E-007 -1.184E-004  4.200E-004 -1.883E-007  1.011E-004  6.073E-004 -1.550E-007  2.451E-005  5.114E-004 -1.050E-006  1.015E-004  6.063E-004  1.227E-007 -1.189E-004  4.178E-004 -3.290E-006 -5.008E-005  6.055E-004 -1.225E-006 -5.080E-005  6.072E-004 -8.071E-007 -2.139E-004  6.096E-004 -2.251E-006 -4.900E-005  5.119E-004 -5.625E-007  9.878E-005  5.109E-004  7.905E-007  1.695E-004  4.203E-004 -2.893E-006 -1.246E-004  5.130E-004 -1.200E-006  2.351E-005  4.177E-004 -1.159E-006  1.830E-004  6.084E-004 -2.169E-006 -1.275E-004  6.082E-004 -1.210E-006 -2.076E-004  5.131E-004 -2.919E-006  2.453E-005  5.122E-004 -6.627E-007  2.419E-005  5.104E-004 -1.116E-006 -1.244E-004  5.110E-004  7.667E-007 -4.815E-005  5.103E-004 -1.995E-008 -1.185E-004  4.191E-004 -2.322E-006 -5.029E-005  6.069E-004 -7.671E-007  9.818E-005  5.127E-004 -1.051E-006  2.240E-005  4.183E-004 -1.060E-006  9.308E-005  4.195E-004  7.207E-007  9.930E-005  5.109E-004 -2.224E-006  2.479E-005  6.060E-004 -1.143E-006  2.531E-005  6.062E-004 -9.694E-007 -1.950E-004  4.202E-004  3.792E-006 -4.891E-005  5.112E-004 -3.389E-007 -4.812E-005  5.120E-004 -9.333E-007 -4.562E-005  4.179E-004  4.041E-007 -2.062E-004  5.136E-004  9.979E-007 -1.245E-004  5.125E-004 -2.495E-007 -2.135E-004  6.102E-004 -1.457E-006 -1.959E-004  4.211E-004  1.964E-006 -1.279E-004  6.064E-004 -2.201E-006 -1.173E-004  4.183E-004  2.170E-006  9.850E-005  5.127E-004 -2.244E-007  2.366E-005  5.104E-004 -2.181E-007  9.775E-005  5.123E-004 -1.636E-006  2.538E-005  6.067E-004 -7.689E-007  2.507E-005  6.054E-004 -6.902E-007  1.846E-004  6.098E-004 -1.034E-006 -1.277E-004  6.076E-004  1.278E-008  1.694E-004  4.214E-004 -1.306E-006  9.312E-005  4.193E-004 -1.972E-006  9.404E-005  4.177E-004 -2.934E-006 -4.761E-005  5.106E-004 -1.510E-006  1.786E-004  5.132E-004 -1.361E-006 -1.196E-004  4.188E-004  9.644E-007  2.506E-005  6.060E-004 -6.074E-007  1.016E-004  6.080E-004 -5.841E-007  1.845E-004  6.094E-004 -3.195E-007  1.785E-004  5.126E-004 -2.376E-006  1.695E-004  4.213E-004  1.074E-007  1.779E-004  5.137E-004 -9.155E-008  9.771E-005  5.123E-004  2.339E-007  1.687E-004  4.194E-004  3.236E-006 -4.582E-005  4.197E-004 -3.920E-007 -4.620E-005  4.199E-004 -9.639E-007 -2.132E-004  6.085E-004 -2.938E-006 -1.957E-004  4.198E-004 -5.233E-006 -2.067E-004  5.122E-004 -4.022E-006  1.690E-004  4.207E-004  1.644E-006 -2.127E-004  6.092E-004  7.396E-007 -2.073E-004  5.138E-004 -1.321E-006  1.012E-004  6.071E-004 -1.137E-006 -1.961E-004  4.217E-004 -1.575E-006 -1.195E-004  4.198E-004 -1.273E-006  2.426E-005  5.117E-004 -3.557E-007  1.779E-004  5.120E-004  2.012E-006  2.270E-005  4.188E-004 -6.776E-007  2.475E-005  5.119E-004 -6.956E-007 -2.130E-004  6.103E-004 -5.849E-007 -4.758E-005  5.116E-004 -1.328E-006  9.323E-005  4.200E-004 -1.158E-006  1.850E-004  6.091E-004 -1.595E-006  1.833E-004  6.080E-004  9.561E-007 -1.269E-004  6.085E-004 -6.155E-007 -1.960E-004  4.209E-004 -3.414E-006 -4.963E-005  6.061E-004 -5.563E-007 -4.611E-005  4.191E-004 -1.445E-006 -5.060E-005  6.066E-004 -1.073E-006 -1.277E-004  6.078E-004 -1.614E-006 -2.081E-004  5.137E-004 -2.383E-007  9.300E-005  4.180E-004  1.603E-006 -1.249E-004  5.123E-004 -1.824E-006  2.294E-005  4.175E-004 -6.772E-008  1.689E-004  4.190E-004 -4.649E-006
        </DataArray>
      </PointData>
      <CellData>
      </CellData>
      <Points>
        <DataArray type="Float32" NumberOfComponents="3" format="ascii">
  3.000E+001  3.000E+001  9.000E+001  3.000E+001  3.000E+001  1.200E+002  6.000E+001  9.000E+001  1.500E+002  3.000E+001  1.500E+002  1.500E+002  6.000E+001  6.000E+001  3.000E+001  3.000E+001  6.000E+001  9.000E+001  3.000E+001  1.200E+002  1.500E+002 0.0  1.200E+002  1.500E+002  3.000E+001  3.000E+001  1.500E+002  6.000E+001  1.500E+002  1.200E+002  3.000E+001  1.800E+002  1.200E+002  9.000E+001  1.200E+002  1.200E+002  6.000E+001  1.500E+002  1.500E+002  3.000E+001  1.500E+002  3.000E+001  3.000E+001  1.200E+002  3.000E+001  3.000E+001  9.000E+001  6.000E+001  9.000E+001  1.200E+002  1.500E+002  9.000E+001  9.000E+001  3.000E+001  6.000E+001  6.000E+001  1.800E+002  6.000E+001  1.200E+002  3.000E+001  3.000E+001  6.000E+001  1.800E+002  6.000E+001  3.000E+001  1.800E+002  6.000E+001  9.000E+001  1.800E+002  9.000E+001  3.000E+001  3.000E+001  6.000E+001  1.200E+002  6.000E+001  3.000E+001  1.800E+002  6.000E+001  9.000E+001  1.800E+002  9.000E+001  3.000E+001  9.000E+001  3.000E+001  9.000E+001  9.000E+001  9.000E+001  6.000E+001  9.000E+001  9.000E+001  9.000E+001  1.500E+002  3.000E+001  3.000E+001  1.200E+002  1.800E+002  9.000E+001  1.200E+002  6.000E+001  6.000E+001  1.500E+002  1.800E+002  6.000E+001  1.200E+002  9.000E+001  3.000E+001  6.000E+001  3.000E+001  9.000E+001  3.000E+001  1.200E+002  3.000E+001  1.500E+002  1.800E+002  6.000E+001  6.000E+001  6.000E+001  3.000E+001  1.200E+002  6.000E+001  9.000E+001  6.000E+001  3.000E+001  3.000E+001  1.800E+002  1.800E+002  9.000E+001  9.000E+001  1.800E+002  9.000E+001  6.000E+001  9.000E+001  9.000E+001  1.200E+002  1.800E+002  6.000E+001  1.800E+002  3.000E+001  3.000E+001  1.500E+002  6.000E+001  6.000E+001  1.200E+002  1.500E+002  3.000E+001  3.000E+001  1.800E+002  6.000E+001  3.000E+001  1.200E+002  6.000E+001  6.000E+001  1.200E+002  3.000E+001  1.200E+002  9.000E+001  9.000E+001  1.800E+002  3.000E+001  3.000E+001  1.800E+002  3.000E+001  3.000E+001  9.000E+001  9.000E+001  6.000E+001  9.000E+001  3.000E+001  9.000E+001  6.000E+001  1.500E+002  6.000E+001  1.800E+002  9.000E+001  6.000E+001  1.500E+002  3.000E+001  6.000E+001  3.000E+001  3.000E+001  6.000E+001  1.500E+002  9.000E+001  6.000E+001  1.800E+002  6.000E+001  3.000E+001  1.500E+002  1.200E+002  3.000E+001  6.000E+001  1.500E+002  6.000E+001  1.800E+002  1.500E+002  9.000E+001  6.000E+001  6.000E+001  3.000E+001  3.000E+001  3.000E+001  3.000E+001  6.000E+001  6.000E+001  6.000E+001  6.000E+001  1.500E+002  9.000E+001  1.500E+002  6.000E+001  6.000E+001  1.800E+002  1.200E+002  3.000E+001  1.800E+002  1.500E+002  6.000E+001  9.000E+001  1.200E+002  9.000E+001  9.000E+001  1.200E+002  9.000E+001  1.500E+002  1.800E+002  6.000E+001  1.800E+002  1.800E+002  6.000E+001  6.000E+001  9.000E+001  6.000E+001  3.000E+001  9.000E+001  3.000E+001  9.000E+001  1.500E+002  9.000E+001  1.200E+002  9.000E+001  6.000E+001  9.000E+001  6.000E+001  9.000E+001  9.000E+001  6.000E+001  3.000E+001  1.200E+002  1.200E+002  9.000E+001  1.500E+002  1.500E+002  3.000E+001  9.000E+001  1.800E+002  9.000E+001  1.500E+002  9.000E+001  6.000E+001  1.500E+002  6.000E+001  6.000E+001  3.000E+001  6.000E+001  9.000E+001  6.000E+001  1.800E+002  3.000E+001  1.800E+002  9.000E+001  3.000E+001  1.500E+002  9.000E+001  9.000E+001  1.800E+002  1.200E+002  9.000E+001  3.000E+001  1.800E+002  6.000E+001  1.200E+002  1.800E+002  9.000E+001  1.800E+002  1.800E+002  6.000E+001  1.200E+002  1.200E+002  9.000E+001  1.500E+002  1.200E+002  3.000E+001  3.000E+001  6.000E+001  6.000E+001  3.000E+001  1.500E+002  9.000E+001  3.000E+001  1.500E+002  1.167E-051  9.000E+001  1.200E+002  1.241E-051  1.200E+002  1.200E+002  3.000E+001  9.000E+001  1.200E+002  9.000E+001  3.000E+001  6.000E+001  9.000E+001  6.000E+001  1.200E+002  9.000E+001  9.000E+001  1.500E+002  9.000E+001  3.000E+001  9.000E+001  3.000E+001  6.000E+001  1.200E+002  9.000E+001  1.200E+002  3.000E+001  9.000E+001  1.800E+002  1.500E+002  9.000E+001  1.800E+002  6.000E+001  1.200E+002  9.000E+001  6.000E+001  1.800E+002  3.000E+001  6.000E+001  1.200E+002  1.200E+002  3.000E+001  1.800E+002  1.800E+002  1.800E+002  1.800E+002  6.000E+001  1.200E+002  1.500E+002  1.800E+002  1.800E+002  1.500E+002  6.000E+001  1.800E+002  1.800E+002  1.200E+002  9.000E+001  1.800E+002  6.000E+001  1.800E+002  1.500E+002  1.200E+002  3.000E+001  1.500E+002  1.500E+002  3.000E+001  1.500E+002  1.200E+002  1.800E+002  1.500E+002  9.000E+001  1.800E+002  1.200E+002  1.500E+002  3.000E+001  1.200E+002  9.000E+001  9.000E+001  1.200E+002  1.200E+002  1.500E+002  1.500E+002  1.500E+002  1.500E+002  1.800E+002  6.000E+001  1.500E+002  1.800E+002  9.000E+001  9.000E+001  1.800E+002  6.000E+001  6.000E+001  1.800E+002  3.000E+001  1.800E+002  1.200E+002  6.000E+001  9.000E+001  1.200E+002  9.000E+001  1.500E+002  1.500E+002  9.000E+001  1.500E+002  1.800E+002  9.000E+001  1.200E+002  1.200E+002  9.000E+001  1.800E+002  1.800E+002  6.000E+001  3.000E+001  1.800E+002  1.200E+002  3.000E+001  1.500E+002  6.000E+001  3.000E+001  1.200E+002  1.200E+002  1.200E+002  1.500E+002  1.200E+002  1.200E+002  1.200E+002  6.000E+001  3.000E+001  1.800E+002  1.500E+002  1.200E+002  1.500E+002  1.500E+002  6.000E+001  1.500E+002  1.200E+002  9.000E+001  1.500E+002  1.200E+002  1.500E+002  1.200E+002  3.000E+001  1.500E+002  1.800E+002  1.500E+002  3.000E+001  1.500E+002  3.000E+001  1.800E+002  1.500E+002  1.500E+002  9.000E+001  1.500E+002  9.000E+001  9.000E+001  1.500E+002  1.500E+002  1.800E+002  1.200E+002  6.000E+001  1.800E+002  1.800E+002  1.200E+002  1.200E+002  1.200E+002  6.000E+001  1.200E+002  1.500E+002  6.000E+001  1.200E+002  1.200E+002  6.000E+001  6.000E+001  1.200E+002  1.200E+002  1.800E+002  1.500E+002  1.800E+002  1.500E+002  1.200E+002  1.500E+002  6.000E+001  1.800E+002  9.000E+001  1.500E+002  1.200E+002  1.800E+002  1.800E+002  1.200E+002  1.500E+002  1.200E+002  1.800E+002  1.200E+002  1.500E+002  1.500E+002  3.000E+001  9.000E+001  1.200E+002  3.000E+001  9.000E+001  1.200E+002  9.000E+001  3.000E+001  1.500E+002  6.000E+001  1.500E+002  1.800E+002  3.000E+001  1.200E+002  1.800E+002  6.000E+001  9.000E+001  1.200E+002  3.000E+001  1.200E+002  1.800E+002  1.500E+002  1.800E+002  1.200E+002  6.000E+001  1.500E+002  1.200E+002  1.800E+002  1.500E+002  1.800E+002  9.000E+001  6.000E+001  1.500E+002  9.000E+001  3.000E+001  1.500E+002  1.800E+002  1.200E+002  1.200E+002  1.500E+002  1.800E+002  1.500E+002  3.000E+001  6.000E+001  1.800E+002  1.500E+002  6.000E+001  1.500E+002  6.000E+001  9.000E+001  1.800E+002  9.000E+001  1.800E+002  1.500E+002  3.000E+001  1.500E+002  1.200E+002  3.000E+001  6.000E+001  1.200E+002  3.000E+001  1.800E+002  1.800E+002  3.000E+001  3.000E+001  1.800E+002  1.800E+002  1.200E+002  1.200E+002  1.200E+002  9.000E+001  1.200E+002  1.800E+002  1.200E+002  1.200E+002  3.000E+001  3.000E+001  1.500E+002  6.000E+001  6.000E+001  1.800E+002  3.000E+001  9.000E+001  1.500E+002  1.800E+002  9.000E+001  1.200E+002  9.000E+001  1.200E+002  1.500E+002  1.800E+002  6.000E+001  1.500E+002  1.800E+002  3.000E+001  1.200E+002  1.500E+002  9.000E+001  1.500E+002  9.000E+001  6.000E+001  1.500E+002  9.000E+001  1.200E+002  1.800E+002  1.800E+002  6.000E+001  1.800E+002  1.800E+002  1.500E+002  1.800E+002  1.200E+002  1.800E+002  1.800E+002  3.000E+001  1.500E+002  1.800E+002  1.500E+002  9.000E+001  1.800E+002  1.500E+002  1.500E+002  1.500E+002  3.000E+001  1.200E+002  1.500E+002  1.500E+002  1.200E+002  1.200E+002  1.500E+002  1.500E+002  1.200E+002  1.200E+002  6.000E+001  1.800E+002  1.200E+002  6.000E+001  1.800E+002  1.800E+002  9.000E+001  1.500E+002  1.200E+002  6.000E+001  1.200E+002  1.800E+002  6.000E+001  1.800E+002  9.000E+001  3.000E+001  1.200E+002  1.800E+002  9.000E+001  1.800E+002  1.800E+002  3.000E+001  1.500E+002  3.000E+001  3.000E+001  1.200E+002  1.800E+002  3.000E+001  2.700E+002  3.000E+001  6.000E+001  2.100E+002  9.000E+001  6.000E+001  2.100E+002  1.200E+002  3.000E+001  2.700E+002  6.000E+001  1.200E+002  2.400E+002  1.800E+002  1.800E+002  2.400E+002  3.000E+001  1.800E+002  2.700E+002  1.200E+002  9.000E+001  2.700E+002  6.000E+001  1.800E+002  2.700E+002  1.800E+002  1.500E+002  2.400E+002  1.500E+002  3.000E+001  2.100E+002  9.000E+001  9.000E+001  2.400E+002  3.000E+001  6.000E+001  2.100E+002  1.200E+002  1.500E+002  2.400E+002  1.500E+002  1.500E+002  2.700E+002  1.500E+002  1.500E+002  2.100E+002  6.000E+001  9.000E+001  2.100E+002  1.800E+002  1.200E+002  2.700E+002  9.000E+001  9.000E+001  2.100E+002  1.500E+002  1.200E+002  2.700E+002  6.000E+001  6.000E+001  2.400E+002  9.000E+001  1.500E+002  2.700E+002  6.000E+001  3.000E+001  2.100E+002  1.500E+002  3.000E+001  2.700E+002  1.200E+002  3.000E+001  2.700E+002  1.200E+002  1.500E+002  2.700E+002  1.800E+002  6.000E+001  2.400E+002  1.200E+002  1.200E+002  2.400E+002  6.000E+001  3.000E+001  2.100E+002  3.000E+001  1.500E+002  2.400E+002  1.500E+002  9.000E+001  2.100E+002  9.000E+001  1.800E+002  2.700E+002  3.000E+001  1.800E+002  2.700E+002  1.500E+002  9.000E+001  2.400E+002  1.800E+002  6.000E+001  2.400E+002  9.000E+001  9.000E+001  2.400E+002  9.000E+001  1.800E+002  2.400E+002  1.500E+002  1.800E+002  2.400E+002  1.200E+002  1.800E+002  2.100E+002  1.500E+002  6.000E+001  2.700E+002  1.200E+002  1.200E+002  2.400E+002  6.000E+001  1.200E+002  2.100E+002  9.000E+001  1.500E+002  2.100E+002  6.000E+001  6.000E+001  2.400E+002  6.000E+001  1.800E+002  2.700E+002  9.000E+001  1.800E+002  2.700E+002  9.000E+001  1.500E+002  2.100E+002  1.800E+002  1.800E+002  2.400E+002  1.200E+002  1.500E+002  2.400E+002  1.200E+002  9.000E+001  2.100E+002  1.200E+002  1.800E+002  2.400E+002  1.800E+002  1.500E+002  2.400E+002  1.500E+002  1.200E+002  2.700E+002  1.800E+002  9.000E+001  2.100E+002  1.800E+002  1.500E+002  2.700E+002  1.500E+002  3.000E+001  2.100E+002  1.500E+002  1.800E+002  2.400E+002  6.000E+001  9.000E+001  2.400E+002  9.000E+001  3.000E+001  2.400E+002  6.000E+001  1.500E+002  2.700E+002  9.000E+001  1.200E+002  2.700E+002  9.000E+001  3.000E+001  2.700E+002  3.000E+001  1.200E+002  2.700E+002  1.500E+002  1.800E+002  2.100E+002  3.000E+001  1.200E+002  2.100E+002  6.000E+001  1.500E+002  2.100E+002  6.000E+001  1.800E+002  2.400E+002  1.200E+002  3.000E+001  2.400E+002  3.000E+001  1.200E+002  2.100E+002  1.500E+002  1.500E+002  2.700E+002  9.000E+001  6.000E+001  2.700E+002  6.000E+001  9.000E+001  2.700E+002  3.000E+001  9.000E+001  2.400E+002  3.000E+001  1.500E+002  2.100E+002  3.000E+001  9.000E+001  2.400E+002  3.000E+001  9.000E+001  2.400E+002  6.000E+001  6.000E+001  2.100E+002  3.000E+001  3.000E+001  2.100E+002  1.200E+002  1.200E+002  2.100E+002  1.200E+002  9.000E+001  2.700E+002  1.800E+002  3.000E+001  2.100E+002  1.800E+002  3.000E+001  2.400E+002  1.800E+002  3.000E+001  2.100E+002  3.000E+001  6.000E+001  2.700E+002  1.800E+002  1.800E+002  2.400E+002  1.800E+002  9.000E+001  2.700E+002  6.000E+001  1.500E+002  2.100E+002  1.800E+002  9.000E+001  2.100E+002  1.500E+002  9.000E+001  2.400E+002  9.000E+001  6.000E+001  2.400E+002  3.000E+001  3.000E+001  2.100E+002  9.000E+001  1.200E+002  2.400E+002  9.000E+001  1.200E+002  2.700E+002  1.800E+002  1.200E+002  2.400E+002  1.200E+002  6.000E+001  2.100E+002  6.000E+001  1.200E+002  2.700E+002  3.000E+001  1.500E+002  2.700E+002  3.000E+001  3.000E+001  2.700E+002  1.500E+002  1.200E+002  2.100E+002  1.800E+002  6.000E+001  2.700E+002  1.200E+002  1.800E+002  2.100E+002  1.200E+002  6.000E+001  2.700E+002  1.200E+002  6.000E+001  2.700E+002  1.500E+002  6.000E+001  2.400E+002  1.800E+002  1.200E+002  2.100E+002  6.000E+001  3.000E+001  2.400E+002  1.500E+002  6.000E+001  2.100E+002  9.000E+001  3.000E+001  2.100E+002  3.000E+001  1.800E+002
        </DataArray>
      </Points>
      <Cells>
        <DataArray type="Int32" Name="connectivity" format="ascii">
 0 1 2 3 4 5 6 7 8 9 10 11 12 13 14 15 16 17 18 19 20 21 22 23 24 25 26 27 28 29 30 31 32 33 34 35 36 37 38 39 40 41 42 43 44 45 46 47 48 49 50 51 52 53 54 55 56 57 58 59 60 61 62 63 64 65 66 67 68 69 70 71 72 73 74 75 76 77 78 79 80 81 82 83 84 85 86 87 88 89 90 91 92 93 94 95 96 97 98 99 100 101 102 103 104 105 106 107 108 109 110 111 112 113 114 115 116 117 118 119 120 121 122 123 124 125 126 127 128 129 130 131 132 133 134 135 136 137 138 139 140 141 142 143 144 145 146 147 148 149 150 151 152 153 154 155 156 157 158 159 160 161 162 163 164 165 166 167 168 169 170 171 172 173 174 175 176 177 178 179 180 181 182 183 184 185 186 187 188 189 190 191 192 193 194 195 196 197 198 199 200 201 202 203 204 205 206 207 208 209 210 211 212 213 214 215 216 217 218 219 220 221 222 223 224 225 226 227 228 229 230 231 232 233 234 235 236 237 238 239 240 241 242 243 244 245 246 247 248 249 250 251 252 253 254 255 256 257 258 259 260 261 262 263 264 265 266 267 268 269 270 271 272 273 274 275 276 277 278 279 280 281 282 283 284 285 286 287 288 289 290 291 292 293 294 295 296 297 298 299 300 301 302 303 304 305 306 307 308 309 310 311 312 313 314 315 316 317 318 319 320 321 322 323 324 325 326
        </DataArray>
        <DataArray type="Int32" Name="offsets" format="ascii">
 1 2 3 4 5 6 7 8 9 10 11 12 13 14 15 16 17 18 19 20 21 22 23 24 25 26 27 28 29 30 31 32 33 34 35 36 37 38 39 40 41 42 43 44 45 46 47 48 49 50 51 52 53 54 55 56 57 58 59 60 61 62 63 64 65 66 67 68 69 70 71 72 73 74 75 76 77 78 79 80 81 82 83 84 85 86 87 88 89 90 91 92 93 94 95 96 97 98 99 100 101 102 103 104 105 106 107 108 109 110 111 112 113 114 115 116 117 118 119 120 121 122 123 124 125 126 127 128 129 130 131 132 133 134 135 136 137 138 139 140 141 142 143 144 145 146 147 148 149 150 151 152 153 154 155 156 157 158 159 160 161 162 163 164 165 166 167 168 169 170 171 172 173 174 175 176 177 178 179 180 181 182 183 184 185 186 187 188 189 190 191 192 193 194 195 196 197 198 199 200 201 202 203 204 205 206 207 208 209 210 211 212 213 214 215 216 217 218 219 220 221 222 223 224 225 226 227 228 229 230 231 232 233 234 235 236 237 238 239 240 241 242 243 244 245 246 247 248 249 250 251 252 253 254 255 256 257 258 259 260 261 262 263 264 265 266 267 268 269 270 271 272 273 274 275 276 277 278 279 280 281 282 283 284 285 286 287 288 289 290 291 292 293 294 295 296 297 298 299 300 301 302 303 304 305 306 307 308 309 310 311 312 313 314 315 316 317 318 319 320 321 322 323 324 325 326 327
        </DataArray>
        <DataArray type="Int32" Name="types" FORMAT="ascii">
 1 1 1 1 1 1 1 1 1 1 1 1 1 1 1 1 1 1 1 1 1 1 1 1 1 1 1 1 1 1 1 1 1 1 1 1 1 1 1 1 1 1 1 1 1 1 1 1 1 1 1 1 1 1 1 1 1 1 1 1 1 1 1 1 1 1 1 1 1 1 1 1 1 1 1 1 1 1 1 1 1 1 1 1 1 1 1 1 1 1 1 1 1 1 1 1 1 1 1 1 1 1 1 1 1 1 1 1 1 1 1 1 1 1 1 1 1 1 1 1 1 1 1 1 1 1 1 1 1 1 1 1 1 1 1 1 1 1 1 1 1 1 1 1 1 1 1 1 1 1 1 1 1 1 1 1 1 1 1 1 1 1 1 1 1 1 1 1 1 1 1 1 1 1 1 1 1 1 1 1 1 1 1 1 1 1 1 1 1 1 1 1 1 1 1 1 1 1 1 1 1 1 1 1 1 1 1 1 1 1 1 1 1 1 1 1 1 1 1 1 1 1 1 1 1 1 1 1 1 1 1 1 1 1 1 1 1 1 1 1 1 1 1 1 1 1 1 1 1 1 1 1 1 1 1 1 1 1 1 1 1 1 1 1 1 1 1 1 1 1 1 1 1 1 1 1 1 1 1 1 1 1 1 1 1 1 1 1 1 1 1 1 1 1 1 1 1 1 1 1 1 1 1 1 1 1 1 1 1 1 1 1 1 1 1 1 1 1 1 1 1 1 1 1 1 1 1
        </DataArray>
      </Cells>
    </Piece>
  </UnstructuredGrid>
</VTKFile>
